ITEM: TIMESTEP
10
ITEM: NUMBER OF ATOMS
2000
ITEM: BOX BOUNDS pp pp pp
-1.5700000000000001e+01 1.5700000000000001e+01
-1.5700000000000001e+01 1.5700000000000001e+01
-1.5700000000000001e+01 1.5700000000000001e+01
ITEM: ATOMS id type x y z c_2[1] c_2[2] c_2[3] c_2[4] c_2[5] c_2[6] 
1 1 -15.6859 -15.7121 -15.708 -308087 -196281 -194610 -6948.47 -57858.5 -129699 
2 1 -14.1233 -14.1309 -14.1573 132363 41860.4 -371416 5169.25 146601 -105749 
3 1 -12.573 -15.7026 -15.709 -218822 -128041 -54574.4 -68033.9 -102503 -105476 
21 1 -15.703 -12.5515 -15.6781 -48628.8 -105738 -344533 21494.5 36567.3 -77297.3 
23 1 -12.5695 -12.5681 -15.7079 24778.1 140756 75746.9 -23203 76872.8 -24798.5 
201 1 -15.6809 -15.711 -12.5594 -194358 51069.9 23106.9 261184 150500 -91050.9 
203 1 -12.5551 -15.7431 -12.5579 -77179.9 -645847 -176558 276645 -1587.81 79275.7 
221 1 -15.6956 -12.563 -12.5813 -40407.2 202651 -150213 -89855.9 -52273.7 8033.76 
223 1 -12.5632 -12.5441 -12.5728 176828 146327 42628.7 124491 11399.7 154206 
4 1 -10.9745 -14.1378 -14.1069 140410 236386 -79219.3 110972 -109650 116227 
5 1 -9.41666 -15.7103 -15.7057 35879.1 115272 108780 28701.2 53833.8 -49179.8 
25 1 -9.4406 -12.5682 -15.7265 199604 277892 266744 -101797 -123821 -49971.3 
205 1 -9.41245 -15.6823 -12.5508 -51310.5 -126300 -121963 -32626.2 -84263.2 -43962.7 
225 1 -9.39695 -12.5614 -12.5543 -151103 -29087.1 97121 -55273.1 -90687.4 51570.2 
6 1 -7.82312 -14.1353 -14.1181 -205356 150978 34182.6 -3540.19 -23059.5 -57963.3 
7 1 -6.29675 -15.6939 -15.7065 -24233.3 -15847.1 208866 76504.3 25806.7 -31653 
8 1 -4.69669 -14.1176 -14.1325 -378822 -172505 -154347 -17660.3 29428 -15617.5 
27 1 -6.28042 -12.5857 -15.7016 136116 -328446 124483 10126.8 79458.2 41164.1 
207 1 -6.27485 -15.7219 -12.5587 -138889 -248323 -179968 43495.3 -16735.2 -49234.2 
227 1 -6.28141 -12.5688 -12.5532 -306845 -223790 -339714 20853.2 -74163.1 192936 
9 1 -3.13756 -15.668 -15.6911 151229 -503024 -11140.1 33561.1 25516.1 -121863 
10 1 -1.58278 -14.1185 -14.091 -464194 -353222 -975796 306893 296085 -464308 
29 1 -3.13419 -12.5716 -15.7062 -56606.8 -290323 -143291 37698.8 71936 -55869.9 
209 1 -3.14646 -15.6926 -12.5445 -225867 -142011 -239841 -14627.7 108303 -50178.9 
229 1 -3.14285 -12.58 -12.5771 -332532 -633518 -496225 263310 169203 -337653 
11 1 0.00121039 -15.6879 -15.6817 84548.7 -41058.8 94417.3 -74668.4 -82536.9 52877.1 
12 1 1.57406 -14.1143 -14.1387 96118.6 -78996.2 -278139 -139501 119602 23165.7 
13 1 3.13471 -15.6987 -15.7183 198074 132902 90956 3796.58 16004.4 12911.2 
31 1 0.0077738 -12.5615 -15.7209 -218540 11462.5 -311462 -42961.1 31922.1 2876.19 
33 1 3.10922 -12.5601 -15.6907 -234063 99580.8 181283 44966.7 215634 32557.1 
211 1 -0.0189063 -15.6853 -12.5528 -178936 -332946 -260300 145046 606.132 -114098 
213 1 3.14789 -15.6897 -12.5115 -119949 -348818 -1.04861e+06 123856 165224 -587449 
231 1 0.0137606 -12.56 -12.5885 -354434 -183735 -283638 34377.8 157473 -59450.1 
233 1 3.10642 -12.5478 -12.5482 -745167 -298449 -282849 -214584 406641 168894 
14 1 4.72636 -14.1389 -14.1172 110296 361808 130977 24947.5 -59426.1 26884 
15 1 6.28721 -15.6946 -15.7054 149932 178485 95871.2 -61502.4 63357.3 -46370.5 
35 1 6.28604 -12.5693 -15.7035 340338 99775.8 357780 -3708.7 -41562.1 -83535.1 
215 1 6.30495 -15.7004 -12.566 -103736 7791.89 238808 106841 30453.6 80346.6 
235 1 6.27127 -12.554 -12.5408 335420 93782.9 59710.7 -69017.8 -23209.8 -92537.9 
16 1 7.84969 -14.1318 -14.1397 289441 234591 72018.1 -32994 -29318.4 -8732.84 
17 1 9.41776 -15.6986 -15.7058 -25364.4 106410 -67588.7 74034.9 16422 42396.3 
18 1 11.0302 -14.1464 -14.1254 -599369 -307928 59278 233472 93535 87380.4 
37 1 9.42477 -12.5268 -15.7105 -25644.5 -399388 5940.01 -97197.7 79810.4 11002 
217 1 9.43542 -15.7092 -12.5664 -218221 -57306.2 30513.8 137579 -2555.76 -36139.5 
237 1 9.43216 -12.5681 -12.5545 89838.8 51357.6 128245 -104915 -20181.3 27685.8 
19 1 12.5679 -15.7191 -15.6857 -39741.4 -221925 -94520.5 127822 72637.9 73005.3 
20 1 14.123 -14.1046 -14.1337 -234486 -26831.1 -3503.58 70764.1 -2423.62 74797.7 
39 1 12.5543 -12.5768 -15.686 -107756 -98675.5 -155160 72856.7 191767 117892 
219 1 12.57 -15.6984 -12.5458 -115305 -6050.29 -365771 206794 -112743 94398.1 
239 1 12.5792 -12.5348 -12.5552 -262467 -464284 -205460 -113465 -49276.5 -46289.8 
22 1 -14.1145 -10.9825 -14.1383 -183998 -33460 -38541.8 -78602.4 12113.9 65336.2 
41 1 -15.6927 -9.44153 -15.7 -123628 -227986 105457 5686.31 37654.3 137062 
43 1 -12.5548 -9.40254 -15.6895 -62554.1 -105173 -21674.1 10276.7 16304.4 -14333.2 
241 1 -15.6816 -9.41511 -12.5416 -73060.6 123504 -149487 -117614 -178443 -47415.7 
243 1 -12.5393 -9.41485 -12.5553 -389833 -260456 -214893 -47826 -100973 -64861.9 
24 1 -10.9973 -10.9667 -14.1111 20558.2 -79135.4 68455.3 31124.1 127693 -137305 
45 1 -9.40215 -9.41954 -15.6831 -430258 1072.83 -295473 -338457 -269222 -187832 
245 1 -9.42449 -9.41286 -12.5671 -210084 -27196.7 -111016 -89864.5 -40534.3 67855.8 
26 1 -7.82363 -10.9844 -14.1269 -191415 -134849 97320.2 -94505.9 27047.9 169765 
28 1 -4.70343 -10.9887 -14.1102 -266592 -289479 -360171 54894.2 -6621.42 109815 
47 1 -6.28004 -9.42346 -15.6802 -354929 -41854 -244974 -46542.6 72146.9 22621.2 
247 1 -6.27771 -9.43611 -12.5435 -178639 -327647 -472396 97094.1 -168421 202913 
30 1 -1.58919 -10.9837 -14.1368 -169368 -165746 -146512 142138 -41319.5 4606.15 
49 1 -3.16809 -9.41438 -15.6733 -860777 -711801 -826876 754685 744096 -628686 
249 1 -3.14123 -9.41671 -12.5574 -85724.3 -69766 -513721 -59039.9 84769.2 116794 
32 1 1.57503 -10.9755 -14.1322 119497 -262207 -17560.6 -15104.8 49588.8 34312.3 
51 1 0.0129372 -9.40317 -15.7013 72175.8 -131600 -61168.6 -46798.2 -75340 -51586.2 
53 1 3.15166 -9.42702 -15.6969 38836.5 142106 167919 16901.5 -21529.1 72344.5 
251 1 0.0205952 -9.41839 -12.5521 -307256 -107168 -31276.3 -39082.9 -38204.4 70726.3 
253 1 3.13408 -9.41189 -12.5648 -41610.2 -204536 85489.2 48612.1 -33325.1 -14578.4 
34 1 4.7232 -10.9656 -14.1285 89785.4 -28705.8 343064 -73595.1 -49673 19519.5 
55 1 6.27703 -9.42437 -15.7036 20786.5 135003 167650 59481 57761 55956.4 
255 1 6.29024 -9.42362 -12.5273 76204.8 -23712.3 -438059 16734.2 -194018 96717.8 
36 1 7.85814 -10.9871 -14.1644 138282 113933 -350922 -31445.1 122278 -16614.1 
38 1 11.008 -11.0234 -14.1215 -215520 -572752 -172038 218543 -142885 65874 
57 1 9.43609 -9.42353 -15.6927 -384750 -303679 -179150 -293569 -195359 -212786 
257 1 9.42461 -9.41468 -12.5394 -112625 120921 -316296 -33246.8 -47548.7 -4500.38 
40 1 14.14 -10.9659 -14.1222 -179688 -296874 -196330 9907.66 71032.5 4681.87 
59 1 12.56 -9.42504 -15.7148 -170645 -160764 -243106 161141 19234.8 -85360 
259 1 12.5492 -9.43403 -12.5655 -60667 -268301 -76319.6 49595.5 -55493.4 -106242 
42 1 -14.1086 -7.85662 -14.1357 -233736 26603.6 -92790.9 -2541.67 34103.5 -16491.3 
61 1 -15.7016 -6.2654 -15.6902 -143515 68020.8 143255 -81101.7 101139 -10747.3 
62 1 -14.1168 -4.68457 -14.1441 -154651 -164868 -218488 -170928 86131.2 93637.5 
63 1 -12.5655 -6.27796 -15.6954 -159604 -177776 -34197.9 -5729.29 17654.4 -22381.6 
261 1 -15.679 -6.24818 -12.5309 -460348 -722578 -651153 -675433 -768364 -845749 
263 1 -12.5534 -6.29211 -12.5488 -308887 -264904 -203470 -19343.5 -33803.8 -35017.2 
44 1 -10.9984 -7.8475 -14.1187 -258711 -234403 -165295 -41917.4 -11972.9 -55678.3 
64 1 -11.0054 -4.71911 -14.1166 -189051 -120217 -244885 -65365.2 64671.7 15746.1 
65 1 -9.43394 -6.25381 -15.7132 -117664 -329670 10715.7 171799 -147561 139677 
265 1 -9.44707 -6.27369 -12.5358 -258221 -155683 -263765 -45639 86262.6 -112946 
46 1 -7.86455 -7.88428 -14.1478 -150873 -592932 -317276 -542837 -291287 -468120 
48 1 -4.68454 -7.87181 -14.1536 -707817 -863977 -855347 696795 764040 -694121 
66 1 -7.83903 -4.70962 -14.1232 255369 436880 114908 -16051.4 -61614.7 -105758 
67 1 -6.28902 -6.29224 -15.7055 138496 13982 319774 -23865.5 -26878.8 -89935.3 
68 1 -4.69404 -4.71848 -14.1368 -39974.4 281766 187663 105972 63158.2 -53205 
267 1 -6.28106 -6.31103 -12.5328 299094 -201087 -104505 79946 -12396.8 357116 
50 1 -1.56731 -7.86319 -14.136 -344183 -272368 48755.6 51417.8 -35224.1 29526 
69 1 -3.12451 -6.29596 -15.6691 -53262.4 -259043 -335204 91755.4 -137181 218600 
70 1 -1.58104 -4.7296 -14.123 -107857 -234986 11377.3 -18961.5 -3981.81 46780.4 
269 1 -3.14087 -6.27715 -12.5518 159134 -65992.8 -112048 34718 33881.5 157056 
52 1 1.53862 -7.84979 -14.1293 -333140 -249299 -20811 -33092.6 -90052.5 19185.2 
71 1 0.015761 -6.26185 -15.6955 -201578 -295838 23479.3 -58698.4 -101150 -14368.6 
72 1 1.57929 -4.72276 -14.1315 -132496 116187 71210.8 17397.7 -14661.9 -70763.2 
73 1 3.14011 -6.27413 -15.6862 -117473 29837.9 -105736 -118476 -148624 -133456 
271 1 0.00635195 -6.28204 -12.5662 -28299.8 -61189.4 68440.5 2976.88 -39104.8 2962.81 
273 1 3.14448 -6.30434 -12.5372 -85392.4 -343537 -202106 66440 -120134 374858 
54 1 4.7336 -7.85284 -14.1302 -78690.7 -133384 81481 -23307.7 -20690.4 -35798.5 
74 1 4.67432 -4.72559 -14.1379 -532475 -143399 -120351 -291288 -206689 -181061 
75 1 6.29551 -6.25519 -15.6983 -252222 -283346 27105.2 -117343 -35990.9 -35291 
275 1 6.2732 -6.28999 -12.5508 24742.3 -91301.3 81843.1 -8224.39 -2197.84 -45276.2 
56 1 7.84646 -7.84901 -14.1278 -71993.6 123949 -85443.9 -35647.3 -6252.25 13754.8 
58 1 10.9836 -7.89177 -14.154 -94099.3 -584297 -649132 -292653 -191644 -544648 
76 1 7.8627 -4.69885 -14.1428 112479 -223274 -49974.5 43231.6 68395.9 -44109.1 
77 1 9.40083 -6.25637 -15.6953 -288918 -192823 -112127 140948 79785.5 -105891 
78 1 11.0157 -4.70915 -14.1441 -275944 167270 93059 -7537.32 65747.4 32377.1 
277 1 9.41216 -6.28183 -12.5598 115681 201684 94881.8 -68953.7 -95763.8 91906.8 
60 1 14.1364 -7.83513 -14.1227 234274 -93591.6 117029 21240.7 33200.9 12723.8 
79 1 12.5696 -6.29152 -15.6904 56873.5 27305.3 -134438 -49015.2 96467 -77755.5 
80 1 14.1262 -4.71461 -14.1211 45609.7 157838 71945.8 1111.7 -17633.3 -76327.3 
279 1 12.5614 -6.27152 -12.5736 217091 203008 -65754.6 -22165.9 106848 135655 
81 1 -15.6689 -3.1148 -15.7172 -698904 -725689 -417093 -653420 738112 702170 
82 1 -14.1027 -1.56513 -14.1329 -206840 -99560.1 80713.3 -34256.2 6930.12 -2992.29 
83 1 -12.5491 -3.13275 -15.7072 -325002 -122658 -118682 55474 64530.5 96490.8 
281 1 -15.7041 -3.15719 -12.5445 109513 -166629 135745 -16512.1 -69298.3 41610.7 
283 1 -12.5609 -3.15958 -12.5599 -40341.5 -5235.52 -99026.5 -8155.16 -126732 -7715.28 
84 1 -10.9943 -1.56209 -14.1245 -119547 -70087.2 53994.2 9349.19 11818.5 -24745.5 
85 1 -9.44071 -3.14369 -15.697 -40272.9 -108085 65054.7 -76807.6 7863.72 -11713.7 
285 1 -9.42657 -3.16187 -12.5722 120704 -64493.2 18945.7 -55755.5 -138896 -90385.4 
86 1 -7.8409 -1.54505 -14.1282 55572.8 -166469 60036.9 -62850.2 -8247.11 22023.8 
87 1 -6.27891 -3.13794 -15.7129 259607 223261 65988.9 -62814.6 19878.7 30003.1 
88 1 -4.71385 -1.55522 -14.1356 80211.5 59561.8 -92781.8 7806.33 75166 40736.9 
287 1 -6.26972 -3.14901 -12.5637 212097 323602 28442.2 37921.5 -42768.3 27016.7 
89 1 -3.13233 -3.14019 -15.6731 15748.6 183045 -95992.2 23797.6 -64771.3 7220.29 
90 1 -1.5588 -1.58727 -14.1156 -87701.3 -28424.5 -24977.3 47465.3 -103344 104971 
289 1 -3.12524 -3.15663 -12.5595 3471.8 -72804.7 -43454.3 84443 62905.9 20461.8 
91 1 -0.0140754 -3.15249 -15.7246 11943.1 -61388.8 69911.5 -54154.5 -126699 -100490 
92 1 1.55736 -1.54905 -14.1352 -35703.9 -99338 232390 90632.4 74378.1 32761.8 
93 1 3.14925 -3.11471 -15.696 133700 -275392 142333 -109198 -49206 -37284.4 
291 1 -0.00409887 -3.15179 -12.5542 53824.6 -20258.1 160405 62818.8 -22766.3 157878 
293 1 3.16165 -3.15464 -12.5383 -190540 -109902 -410879 233531 -303309 282747 
94 1 4.70271 -1.57269 -14.1231 -39985.7 -19666.6 -113231 -23311.2 23004.5 -2976.67 
95 1 6.29825 -3.14822 -15.6837 -111417 -183183 72201.6 98549.7 -209314 -99440.4 
295 1 6.2923 -3.16241 -12.5515 -133224 -165653 -93289 94805.9 49911.9 151778 
96 1 7.83033 -1.5866 -14.1211 -272198 -337290 -1660.24 -132863 17734.4 27640.3 
97 1 9.42071 -3.13365 -15.6775 -151597 -256314 -5805.07 -84950.6 -11781.6 -196228 
98 1 10.9737 -1.57597 -14.136 -157321 -313699 21562.7 -135186 -141039 -84169.6 
297 1 9.42225 -3.11184 -12.5489 -61634.2 -232253 -88238.4 -34739.8 -93110.1 -128928 
99 1 12.5487 -3.12966 -15.6928 120546 -121186 126248 83150.6 51883.9 10051.1 
100 1 14.1283 -1.54806 -14.1438 129561 -152996 -41108.7 -34645.2 16538.2 184673 
299 1 12.5553 -3.12238 -12.5496 84300.4 -21310 84804.1 -1577.36 -92273.6 -104221 
101 1 -15.7214 -0.000953176 -15.6887 -147210 -259012 -179099 -87951 251943 10466.7 
102 1 -14.1079 1.56639 -14.13 -228818 -42089.1 139061 97717.5 51404.3 22962.9 
103 1 -12.55 0.001642 -15.6944 -80984 -103114 30713.9 -54301 78849.6 33296.9 
121 1 -15.7137 3.11717 -15.7017 -218201 -416207 -248828 -254330 -26029.1 -90047.1 
123 1 -12.5471 3.13269 -15.6967 82230.7 16345.8 298391 137537 151994 89233.9 
301 1 -15.7107 0.00268317 -12.5663 201388 71198.1 -8529.56 86374.9 12546.1 -55024.5 
303 1 -12.5504 0.0310646 -12.5638 13207.1 -190426 -65300.9 5276.98 -1692.96 -10818.3 
321 1 -15.6912 3.14566 -12.5639 -40002.3 -107512 -149603 -28504.4 92763.7 -3557.46 
323 1 -12.5595 3.15548 -12.5243 -117040 -354809 -352606 29712.2 -27640.6 -237615 
104 1 -10.9905 1.56323 -14.134 -76539.5 -28790.4 11906 -85907.6 -35222.8 36722 
105 1 -9.43056 -0.0287132 -15.6886 -219666 -203403 -148288 -60571.8 55506.5 74380 
125 1 -9.42392 3.14888 -15.696 75060.6 195478 5359.52 -26514 49168.8 -90043.9 
305 1 -9.41428 0.00645607 -12.5546 -80575.9 64951.8 -36181.4 -48503.5 -37050 61464.1 
325 1 -9.41503 3.13617 -12.5717 -232672 -357569 -160169 -15776.9 -55808.9 -43034.9 
106 1 -7.83618 1.5585 -14.1125 -199338 -217229 -269750 91103.9 41709.9 -15545.9 
107 1 -6.29082 0.0037982 -15.6917 26764.4 -41239.8 -113140 50666.9 125772 -71957.3 
108 1 -4.72771 1.56802 -14.1134 -191554 67552.7 -64060.1 -46498.7 171623 -28747.6 
127 1 -6.27794 3.13802 -15.6815 101766 16487.9 13623.1 33504.9 -26082.2 12980 
307 1 -6.27609 0.0116171 -12.5515 70240.6 -81562 -176391 71700.4 57121.7 -41361.6 
327 1 -6.29551 3.13382 -12.5547 -365051 -339087 -274847 -167609 267706 88958 
109 1 -3.12259 0.00712876 -15.6807 -123885 48200.7 -7104.3 -132754 -133176 -78734 
110 1 -1.57911 1.57135 -14.1315 46071.8 130125 -86386.4 -53751 -100901 -89644 
129 1 -3.14363 3.14552 -15.6929 -26075.8 -7776.4 76202.1 -17170.3 -43792.4 -138918 
309 1 -3.11598 -0.0223287 -12.5416 -256001 30921.9 -346657 180710 -226617 213158 
329 1 -3.14256 3.14832 -12.5648 -14514 103703 -70671.7 -34643.8 42783 88718.5 
111 1 0.000679353 0.00182811 -15.6911 -158542 173255 45478.3 -41006.3 -160579 -79219.8 
112 1 1.56013 1.54046 -14.1478 -11618 -404962 -258427 -84826.5 6183.02 -360693 
113 1 3.14175 0.00965485 -15.6732 -141393 -339440 -222279 34607.6 90406.1 -203043 
131 1 0.00633383 3.15625 -15.7152 72338.4 -167720 -8232 -92590.4 -38234.5 45234.7 
133 1 3.14558 3.11413 -15.7001 108086 -238110 29071.6 -14916.8 97803.2 -119576 
311 1 -0.00150868 -0.00163762 -12.5432 -106023 94567.7 -283619 -46688 18155.9 -17192.4 
313 1 3.15269 -0.00624175 -12.5544 -93958.1 77161.2 -288623 80386.5 -46254.7 19617.5 
331 1 0.00569439 3.14195 -12.546 44041 -207199 -29038.8 -76097.1 -123212 -8630.94 
333 1 3.14882 3.1444 -12.5478 76537 191218 70058.7 -29715.1 8767.66 52205.6 
114 1 4.72709 1.55598 -14.1501 -180730 -204482 -217816 1363.88 79083.4 -99757.9 
115 1 6.27189 -0.0146082 -15.7132 -163749 -201372 -41284.2 -1051.87 -80249.3 -161976 
135 1 6.3031 3.11719 -15.6915 -324355 -201913 -183732 117064 -8820.84 52824.3 
315 1 6.2722 -0.00422531 -12.5323 -247357 42871.6 -407253 -125632 102270 140848 
335 1 6.28125 3.15846 -12.5938 -243958 -397755 -653530 314245 -286350 451137 
116 1 7.83659 1.54462 -14.1247 -158708 -135463 6128.27 48139.3 -88916.5 69884.3 
117 1 9.4115 -0.00831983 -15.6906 -33446.3 -1722.1 13337 -61249.8 -153987 5677.63 
118 1 10.9997 1.54269 -14.1547 -42543.2 -258049 -238683 95862.3 -31536.6 -178490 
137 1 9.39371 3.15869 -15.7151 -335535 16098.6 -63772.8 173503 -160155 90099.7 
317 1 9.42348 0.00644799 -12.5609 -158394 -137389 -103334 64811.3 -44531.6 -17005.3 
337 1 9.4183 3.14618 -12.5562 139360 145061 -12475.8 79871.2 -69188.9 74647.2 
119 1 12.5628 -0.0287618 -15.7067 -51224.5 -504402 -157911 117593 18808.3 -90342 
120 1 14.1375 1.59332 -14.1256 -108053 -485927 -273413 75364.3 229131 -78600.7 
139 1 12.5666 3.10478 -15.7059 -287702 -641167 -498493 422538 351490 -328922 
319 1 12.5302 0.00559684 -12.5873 -372906 -327845 -265435 159993 -367339 66214.8 
339 1 12.5541 3.09866 -12.5793 3400.64 -693865 -114488 -14186.6 171969 -437617 
122 1 -14.1491 4.69722 -14.1254 -118664 -133024 -55682.2 -156120 99569.9 77692.1 
141 1 -15.6804 6.2785 -15.7133 -332464 -10501.5 -226819 -57531.4 187751 6018.44 
143 1 -12.5476 6.26635 -15.6961 -23770.3 -94128.3 94253.1 92521.1 -28154.7 -35776.5 
341 1 -15.6794 6.28089 -12.5507 -173771 -161921 -41231.1 -5043.57 -92411.9 384.299 
343 1 -12.5555 6.27376 -12.5571 -258900 -242332 4353.99 -40980.9 -9244.51 -17093.7 
124 1 -10.9692 4.72923 -14.1006 -315930 -372953 -468811 -248245 -456251 -412269 
145 1 -9.40422 6.29303 -15.693 26492.2 -85770.8 24882 -10685.4 -90134 -31204.1 
345 1 -9.42185 6.24969 -12.5517 -354927 -682006 -428606 -166462 -246054 -109725 
126 1 -7.852 4.71711 -14.1236 -147688 -10294 -138465 34760.7 8155.77 -68044.9 
128 1 -4.70393 4.7256 -14.1179 -104640 -76800.5 -27838.8 74676.2 -13069.4 -143186 
147 1 -6.26719 6.27674 -15.7002 -64860.4 28699.6 156470 26544 6651.76 -12289.8 
347 1 -6.27828 6.28214 -12.5607 -143777 -79227.8 -276408 135418 90805.7 -94864.1 
130 1 -1.58821 4.71329 -14.1133 -140102 -21012.5 -139848 -124700 72596.4 2809.15 
149 1 -3.13463 6.29621 -15.735 -398547 -241032 -432676 155612 -77965.2 381387 
349 1 -3.15234 6.2967 -12.5475 -129817 -91708 218777 87783.3 78974.5 -128403 
132 1 1.55886 4.71608 -14.1485 210390 359154 -109104 40675 -57465.3 -13599.2 
151 1 -0.0292907 6.26612 -15.6951 -177900 -123188 -85591.3 -173819 158163 -71227.3 
153 1 3.17058 6.28176 -15.713 -94812.2 292610 -38336.3 -144453 113608 87678.6 
351 1 -0.00195503 6.24905 -12.5701 78302.4 -373448 -197522 46234.9 -171621 30169.8 
353 1 3.15802 6.30029 -12.5617 -40980.1 -119617 69361.9 -138440 142240 137444 
134 1 4.7208 4.69258 -14.1033 -263963 -334249 -455085 296780 -325769 519483 
155 1 6.27771 6.26626 -15.7056 -150140 111086 -225133 140973 46212.1 11626.4 
355 1 6.29987 6.27244 -12.6052 -615212 -347742 -924005 376121 713318 -354801 
136 1 7.85308 4.7325 -14.1117 -547337 -607898 -670914 240980 276592 -526821 
138 1 10.9964 4.73153 -14.1468 58670.3 -53417.9 -158300 -26964.2 70176 161733 
157 1 9.40784 6.29155 -15.6878 -21589.2 -162514 -386982 55455.4 105777 -77408.5 
357 1 9.41663 6.28203 -12.5911 -210240 -123307 -418024 -124420 -172754 13387.3 
140 1 14.1415 4.70902 -14.1343 -85412.1 34373.3 -96141 88337.4 16927.6 -11266.4 
159 1 12.5793 6.27563 -15.7023 -70241.2 103336 -222406 90589.2 119338 -44726.9 
359 1 12.5546 6.27388 -12.5648 2845.05 96765.9 11837.3 -87011.3 -2382.22 85265.9 
142 1 -14.1435 7.84352 -14.1291 -167726 171351 -47276.3 -108679 -22047.6 47573.5 
161 1 -15.6779 9.42703 -15.6891 -131094 110585 180948 -78659.1 -106581 -118281 
162 1 -14.1311 11.0137 -14.1303 312860 -81879.8 195821 -56815.9 -145011 -65218.8 
163 1 -12.5641 9.38448 -15.7012 -75344.9 -340075 448.55 -122033 -11701.6 67015 
361 1 -15.6925 9.39734 -12.5292 104769 -137132 -183371 133564 -136140 197128 
363 1 -12.5548 9.40569 -12.5713 61138.2 68187.8 113531 40876.4 24550 -84679.2 
144 1 -10.9964 7.84697 -14.128 -22749.5 -106416 -24003.3 16088.2 17338.9 -23191 
164 1 -10.9745 11.0001 -14.143 -154803 -91470.3 -131724 -161451 212350 217405 
165 1 -9.41944 9.41636 -15.7022 31126.2 -223548 -50701.9 92967 -36984.8 83116.1 
365 1 -9.4209 9.40516 -12.5507 167611 8627.15 10798.6 23721 89264.6 57109.6 
146 1 -7.86434 7.85713 -14.1425 -85516.6 1286.14 -16221.5 85375.9 -109453 39395.8 
148 1 -4.72634 7.84668 -14.141 43657.9 -101488 95518 -19435.7 -30037.4 33741.4 
166 1 -7.85988 10.9944 -14.1137 56411.8 61837 -53044.8 74772 102928 6135.46 
167 1 -6.26965 9.41127 -15.6991 -177497 3613.61 316065 93.5431 -85432.4 55626.8 
168 1 -4.70635 10.9908 -14.1291 21294.7 97537.3 135934 70409.9 44050.6 -36423.2 
367 1 -6.25641 9.42095 -12.5382 43343 5585.85 -170466 85764.7 -141361 31470.3 
150 1 -1.55119 7.84088 -14.1212 -98928.4 -20012.1 280628 127566 54485.1 -88910.8 
169 1 -3.16796 9.42679 -15.7054 -429632 21315.1 75658.2 38868.7 -37175.8 -34588.3 
170 1 -1.57248 11.0043 -14.1394 -167085 -56711.2 -7149.36 68878.2 159481 59472.2 
369 1 -3.10704 9.42915 -12.5864 -385238 -20802.5 -104900 -7528.92 328293 -21630.2 
152 1 1.56172 7.8753 -14.1229 92510.3 21901.8 89477.8 8249.91 74547.4 55880.8 
171 1 -0.0291302 9.4157 -15.7075 -130221 234148 91647.8 -17610.1 23128 13124 
172 1 1.55834 11.0027 -14.1068 -107780 -42839.3 3931.92 42133.7 290669 -90760.1 
173 1 3.13274 9.42681 -15.6927 243972 71379.4 20587.5 -117758 3913.28 -30495.7 
371 1 -0.00633459 9.43736 -12.5773 -39932.3 99322.3 39301.3 129407 112047 100184 
373 1 3.15219 9.4228 -12.5524 22598.8 -35906.5 -187428 -188964 68518.5 32406 
154 1 4.71076 7.83717 -14.1159 113437 -111039 20505.2 -53772.5 132012 206592 
174 1 4.68936 10.9646 -14.1263 -204724 -244319 -13147.3 -266681 20116.1 90331.2 
175 1 6.27545 9.41211 -15.6937 27608.2 2930.76 295663 -12478.6 14013.9 1039.55 
375 1 6.279 9.4423 -12.5293 -11700.4 -62490.3 -304732 -41556.4 4222.87 -173945 
156 1 7.86441 7.84126 -14.1327 -147574 -222897 46529.9 24596.2 38127.1 113612 
158 1 10.9976 7.83529 -14.1395 -49037.5 -378424 -89922.3 -78036.1 -26060 -51219.9 
176 1 7.8313 10.9999 -14.1269 -89665.6 -163260 130675 51432.6 67638.3 -45732.6 
177 1 9.41434 9.41722 -15.6953 57840 -90367.5 22142 -85538.2 -56173 -10949.5 
178 1 10.9792 10.9579 -14.1305 -161206 -366152 5522.1 -208371 -62630.6 -16513.7 
377 1 9.43565 9.40911 -12.5387 -201768 -161655 -188940 -4855.31 -169381 185825 
160 1 14.14 7.86587 -14.1345 -101296 -75105.5 125865 -55016.5 13339.7 -14394.8 
179 1 12.5649 9.42402 -15.7097 133745 -31208.9 -138953 -42453.8 -74516.3 -101636 
180 1 14.1 10.9658 -14.1191 -257966 -545282 33567.3 -361516 123261 -12801.9 
379 1 12.5506 9.41965 -12.5795 -195856 -104334 -118738 -165479 74293.6 110068 
181 1 -15.6893 12.5723 -15.7281 58819.4 -168479 -390816 -57516.7 -14573.8 11184.3 
182 1 -14.1677 14.1321 -14.1177 -481349 -194593 -345698 164748 135676 -162190 
183 1 -12.5335 12.5577 -15.6925 -420369 130167 -113870 -87887.9 -233262 101316 
381 1 -15.7413 12.5552 -12.5724 -612816 39205.8 193933 -72256.9 -98363.5 -50271.8 
383 1 -12.5672 12.5638 -12.5633 134657 -120689 70271.4 -79684.5 -23752.9 -6548.62 
184 1 -10.9877 14.1304 -14.129 104028 -104151 -198766 32262.6 34781 -13724.5 
185 1 -9.43264 12.5463 -15.6854 -268625 -198745 -214775 -84762 222811 205516 
385 1 -9.43413 12.5538 -12.5612 61870.3 74872.1 -141982 -53179.8 78588.5 -11446.1 
186 1 -7.84977 14.1172 -14.1042 87515.2 -27963.7 -178193 -48270.5 -9216.91 71621 
187 1 -6.2774 12.5566 -15.7095 187744 188836 113087 21867.8 49631.9 3154.53 
188 1 -4.7068 14.1389 -14.1244 58046.3 26311.1 171483 40717.2 125388 -110234 
387 1 -6.24677 12.56 -12.5505 -193370 -80506.3 168366 2140.32 -89944.4 13058.3 
189 1 -3.137 12.576 -15.6894 -66089.2 97150.2 -3004.85 147695 15653.6 -11191.1 
190 1 -1.56733 14.1353 -14.1139 -114284 -127504 -53861.5 -44731.5 -15886 -50592.1 
389 1 -3.10913 12.5466 -12.5626 -548016 -48351.4 59210.1 120235 34679.6 -16563.5 
191 1 -0.0232547 12.5727 -15.7023 -120523 117091 78535.6 65431.4 66917.4 67215.3 
192 1 1.5551 14.1316 -14.1213 -16601.3 76283.1 42559.2 69446.1 116918 68668.8 
193 1 3.15471 12.5604 -15.6699 110244 33856 -329920 -51271.4 -211108 51274.9 
391 1 0.00725601 12.5815 -12.5542 -342017 -328539 -195843 7440.87 97782.6 -214142 
393 1 3.14406 12.5719 -12.5657 -70850.8 -23538.2 -105612 -16149.7 23836.2 58667 
194 1 4.70197 14.1202 -14.1285 143251 75708.8 167269 -72578.7 -63614.2 36502.6 
195 1 6.28418 12.5448 -15.6945 -133802 52391.8 -59032.6 99492 -68001.7 7007.85 
395 1 6.28179 12.5811 -12.5871 -102155 -251727 -334498 -85979.3 157837 194849 
196 1 7.87098 14.1029 -14.1155 -332468 -443327 -197397 282104 -44803.4 175492 
197 1 9.39981 12.5636 -15.6924 -186929 -18171.8 -145604 113566 81567.1 -145848 
198 1 10.9852 14.1408 -14.137 -359738 -17475.6 -107473 144473 -33839.2 47251.3 
397 1 9.41855 12.5586 -12.5666 -158064 -84651.1 38735.1 26786.5 -175436 56404.5 
199 1 12.5654 12.5593 -15.6827 -55365.4 -302244 -438696 -210736 -392441 -324785 
200 1 14.1026 14.0888 -14.139 -838626 -746972 -588877 -635692 -249540 -185717 
399 1 12.5524 12.5681 -12.5841 -303501 -180229 -357525 -106215 114067 144624 
202 1 -14.125 -14.1492 -10.9906 134367 -117064 107532 23712.1 -74633.5 36105.1 
401 1 -15.6737 -15.7112 -9.41265 -170999 83464 83299.8 246328 -31982 56859.9 
403 1 -12.5534 -15.7098 -9.43925 -235366 -27572.6 -197913 16193.8 26385.3 -74893.7 
421 1 -15.6837 -12.5311 -9.40488 -186307 -351625 -25029.4 -164228 -154645 -156828 
423 1 -12.564 -12.5471 -9.41748 -128894 -93549.6 21833.6 -15587.4 54698.4 86711.1 
204 1 -10.9889 -14.1202 -10.9836 -14274.1 62224.4 -136869 41735.3 24528 20444.8 
405 1 -9.4247 -15.6752 -9.42106 -205105 -285642 -288025 99782.2 55561.6 -50784.5 
425 1 -9.42382 -12.5479 -9.43867 -80695.7 -162091 -216081 33838.1 -23538.1 177134 
206 1 -7.84422 -14.1381 -10.9888 -296681 -142385 -272114 -12220.4 -138497 60035.9 
208 1 -4.72823 -14.1118 -11.0017 -370290 -168288 -354740 265393 -105968 178501 
407 1 -6.27944 -15.692 -9.44937 -76347.2 18790.2 -446653 36443.4 -40272 110786 
427 1 -6.29572 -12.5608 -9.45022 -61384.3 -73584.4 -508942 138232 -253294 -30075.4 
210 1 -1.56764 -14.1194 -10.9964 40152.5 -39730.4 -373133 41909.3 13712 -42475.6 
409 1 -3.14803 -15.6619 -9.43577 127579 -479151 -102322 -10515.7 -102188 129581 
429 1 -3.12366 -12.5739 -9.4174 82038 -159233 129267 106278 49364.2 -28478.8 
212 1 1.59196 -14.1217 -11.0341 -767475 -658682 -1.21801e+06 -138541 884204 90532.5 
411 1 -0.000853501 -15.6956 -9.44495 118461 132859 -311728 1155.86 1804.85 -38847.2 
413 1 3.14275 -15.7212 -9.43167 81694.7 -224989 -320103 -2707.87 -17457.6 -157633 
431 1 0.00776616 -12.5514 -9.40846 -192744 -145233 19310.7 -86675 -1698.42 18885.2 
433 1 3.12036 -12.5766 -9.41457 -288300 65577.3 -91877.5 -60032 67222.1 83871 
214 1 4.71653 -14.1362 -10.9944 15865.1 19312.9 -27513.6 -199535 -47453.7 -127021 
415 1 6.28416 -15.6967 -9.38831 159815 -154.747 -390518 65363.2 -182894 -57740.6 
435 1 6.27562 -12.5588 -9.41663 147630 -20208.6 -107332 -91482.6 -52060.5 -81614.5 
216 1 7.87166 -14.1166 -10.9922 -43006.9 -20608.9 252254 -200728 -79672.7 -88537.3 
218 1 11.0091 -14.1389 -10.9866 -189894 -193005 -145063 105945 -64687.6 -10058.8 
417 1 9.46696 -15.697 -9.41551 -837891 -19897.9 29886.7 -137890 -215730 -66629.4 
437 1 9.42728 -12.57 -9.41074 -366118 -422842 -356239 -442222 -503333 -357815 
220 1 14.131 -14.1185 -10.9874 -34009 175940 102628 47878.4 -8352.55 -44563.1 
419 1 12.5515 -15.7267 -9.44982 -75222.9 -131707 -285478 108470 -132920 -308585 
439 1 12.5598 -12.5772 -9.41163 -10154.6 -165094 -199643 30522.2 -30713.4 -8442.2 
222 1 -14.1267 -11.0053 -10.9962 14536.5 -88017.6 -3919.21 -10058.5 -23308.4 27696.1 
441 1 -15.7024 -9.42595 -9.40964 -198080 -218830 -234654 -74774.5 -4458.27 126616 
443 1 -12.5794 -9.42359 -9.41865 -191180 -275680 -69712.7 -9356.95 23251 -6494.61 
224 1 -10.981 -10.9719 -10.9694 -102056 -237996 -213685 -7248.32 -92636.9 -13437.3 
445 1 -9.4176 -9.41961 -9.41115 -25590.6 -139846 -17583.6 -75680.7 17755.6 -51588.9 
226 1 -7.85369 -10.9872 -10.9795 -135713 -185219 -128766 -52296.7 -47536.3 85863.5 
228 1 -4.69957 -10.9627 -11.0182 -89145.5 -627602 -587418 -102820 23565.7 435436 
447 1 -6.29101 -9.39689 -9.4297 -69958.5 -345186 -248029 28731.7 -97745.7 145898 
230 1 -1.55234 -10.9894 -11.0053 -167888 -49258.9 -67245.3 -4553.03 159677 48859.7 
449 1 -3.1384 -9.4139 -9.45864 100082 167471 -530477 -9401.52 10556 146490 
232 1 1.56863 -10.9902 -10.9681 -212120 -240755 -325709 35855.2 94386.2 -10804.9 
451 1 0.00782002 -9.43693 -9.40785 -301483 -258178 -115592 -7055.57 83397.8 154528 
453 1 3.1119 -9.39391 -9.40999 -383061 -395496 -84981.5 164889 4849.33 -133498 
234 1 4.70112 -10.9971 -10.9943 -34690.3 106660 59946.9 -88871.2 -101721 -20776.6 
455 1 6.29683 -9.43065 -9.44046 112795 -87052.9 -320575 68080.8 81720.4 -60265.5 
236 1 7.84065 -10.9911 -10.9919 -41795.2 -77938.4 143275 -8076.2 -89975 -42207.4 
238 1 10.9875 -11.0016 -10.9949 -116772 -104481 -221838 38177.6 -3784.06 -114003 
457 1 9.42988 -9.42675 -9.44934 -26469.4 153190 -425491 114071 12642.5 -192431 
240 1 14.1167 -10.96 -10.9926 -109573 -468043 -190635 114882 -97317 -92502.3 
459 1 12.5623 -9.44661 -9.41349 -84341 -190971 -52502.3 108894 60942.3 3420.35 
242 1 -14.1359 -7.86276 -10.9808 -156188 -122018 -158136 -126147 -59977.3 54024.6 
262 1 -14.1499 -4.70974 -11.0083 -660694 -393931 -426446 -505351 -686033 -418466 
461 1 -15.7061 -6.27601 -9.42021 35611.3 228980 -38667.2 7129.72 21964.8 76917.1 
463 1 -12.5545 -6.30242 -9.42335 -220009 -363085 -165553 -40614.1 49882.6 -25466.4 
244 1 -10.9997 -7.85153 -10.9893 -228848 -310974 -281080 -56801.4 -54932 -87294.8 
264 1 -10.9945 -4.70832 -10.981 -93863.5 -114841 -261097 54804.3 12504.2 -21957.2 
465 1 -9.45224 -6.28796 -9.43685 -585922 -93546.5 -293753 -64799.1 -136532 -14912.4 
246 1 -7.85362 -7.85367 -10.9758 -130156 -237596 -70738.7 -27857.7 -27363.6 70138.2 
248 1 -4.71405 -7.86086 -10.9846 -39994.6 -225513 -101454 7061.29 -18388.1 149728 
266 1 -7.85778 -4.72279 -10.9952 -50691 -21457.7 23858.3 -80807.5 -133190 -36335.7 
268 1 -4.71847 -4.69874 -10.9785 115439 8625.71 43077.4 109151 70565.4 -987.906 
467 1 -6.29737 -6.28705 -9.41424 10623 -208360 -150295 -43705.8 50304.6 47468.4 
250 1 -1.57273 -7.84592 -10.9807 -20363.8 102506 75216.8 -78118 52512.9 105266 
270 1 -1.55909 -4.69395 -10.9607 -42734.1 -32331.4 -384421 -95985.7 -125728 -129415 
469 1 -3.14097 -6.26641 -9.41939 160001 -51052.2 21026.8 -49426 11002 15615.7 
252 1 1.5672 -7.86247 -10.9952 -104493 -135692 -34626.9 -49630.4 -30745.8 30349.3 