ITEM: TIMESTEP
10000
ITEM: NUMBER OF ATOMS
1
ITEM: BOX BOUNDS pp pp pp
-1.5762434170274597e+01 1.5762434170274597e+01
-1.5762434170274597e+01 1.5762434170274597e+01
-1.5762434170274597e+01 1.5762434170274597e+01
ITEM: ATOMS id type x y z 
2001 2 -0.557309 -1.58276 -0.0435274 
ITEM: TIMESTEP
20000
ITEM: NUMBER OF ATOMS
1
ITEM: BOX BOUNDS pp pp pp
-1.5762434170274597e+01 1.5762434170274597e+01
-1.5762434170274597e+01 1.5762434170274597e+01
-1.5762434170274597e+01 1.5762434170274597e+01
ITEM: ATOMS id type x y z 
2001 2 -0.605838 -1.61487 0.179936 
ITEM: TIMESTEP
30000
ITEM: NUMBER OF ATOMS
1
ITEM: BOX BOUNDS pp pp pp
-1.5762434170274597e+01 1.5762434170274597e+01
-1.5762434170274597e+01 1.5762434170274597e+01
-1.5762434170274597e+01 1.5762434170274597e+01
ITEM: ATOMS id type x y z 
2001 2 -0.940677 -1.50937 -0.0664752 
ITEM: TIMESTEP
40000
ITEM: NUMBER OF ATOMS
1
ITEM: BOX BOUNDS pp pp pp
-1.5762434170274597e+01 1.5762434170274597e+01
-1.5762434170274597e+01 1.5762434170274597e+01
-1.5762434170274597e+01 1.5762434170274597e+01
ITEM: ATOMS id type x y z 
2001 2 -0.843403 -1.59988 0.101842 
ITEM: TIMESTEP
50000
ITEM: NUMBER OF ATOMS
1
ITEM: BOX BOUNDS pp pp pp
-1.5762434170274597e+01 1.5762434170274597e+01
-1.5762434170274597e+01 1.5762434170274597e+01
-1.5762434170274597e+01 1.5762434170274597e+01
ITEM: ATOMS id type x y z 
2001 2 -0.707583 -1.5098 -0.00943569 
ITEM: TIMESTEP
60000
ITEM: NUMBER OF ATOMS
1
ITEM: BOX BOUNDS pp pp pp
-1.5762434170274597e+01 1.5762434170274597e+01
-1.5762434170274597e+01 1.5762434170274597e+01
-1.5762434170274597e+01 1.5762434170274597e+01
ITEM: ATOMS id type x y z 
2001 2 -0.705149 -1.49219 0.072952 
ITEM: TIMESTEP
70000
ITEM: NUMBER OF ATOMS
1
ITEM: BOX BOUNDS pp pp pp
-1.5762434170274597e+01 1.5762434170274597e+01
-1.5762434170274597e+01 1.5762434170274597e+01
-1.5762434170274597e+01 1.5762434170274597e+01
ITEM: ATOMS id type x y z 
2001 2 -0.847747 -1.51152 -0.034465 
ITEM: TIMESTEP
80000
ITEM: NUMBER OF ATOMS
1
ITEM: BOX BOUNDS pp pp pp
-1.5762434170274597e+01 1.5762434170274597e+01
-1.5762434170274597e+01 1.5762434170274597e+01
-1.5762434170274597e+01 1.5762434170274597e+01
ITEM: ATOMS id type x y z 
2001 2 -0.737197 -1.46195 0.083735 
ITEM: TIMESTEP
90000
ITEM: NUMBER OF ATOMS
1
ITEM: BOX BOUNDS pp pp pp
-1.5762434170274597e+01 1.5762434170274597e+01
-1.5762434170274597e+01 1.5762434170274597e+01
-1.5762434170274597e+01 1.5762434170274597e+01
ITEM: ATOMS id type x y z 
2001 2 -0.692554 -1.57147 0.0271348 
ITEM: TIMESTEP
100000
ITEM: NUMBER OF ATOMS
1
ITEM: BOX BOUNDS pp pp pp
-1.5762434170274597e+01 1.5762434170274597e+01
-1.5762434170274597e+01 1.5762434170274597e+01
-1.5762434170274597e+01 1.5762434170274597e+01
ITEM: ATOMS id type x y z 
2001 2 -0.793377 -1.62228 -0.0413389 
ITEM: TIMESTEP
110000
ITEM: NUMBER OF ATOMS
1
ITEM: BOX BOUNDS pp pp pp
-1.5762434170274597e+01 1.5762434170274597e+01
-1.5762434170274597e+01 1.5762434170274597e+01
-1.5762434170274597e+01 1.5762434170274597e+01
ITEM: ATOMS id type x y z 
2001 2 -0.64445 -1.56199 -0.0663005 
ITEM: TIMESTEP
120000
ITEM: NUMBER OF ATOMS
1
ITEM: BOX BOUNDS pp pp pp
-1.5762434170274597e+01 1.5762434170274597e+01
-1.5762434170274597e+01 1.5762434170274597e+01
-1.5762434170274597e+01 1.5762434170274597e+01
ITEM: ATOMS id type x y z 
2001 2 -0.652765 -1.56499 0.0575949 
ITEM: TIMESTEP
130000
ITEM: NUMBER OF ATOMS
1
ITEM: BOX BOUNDS pp pp pp
-1.5762434170274597e+01 1.5762434170274597e+01
-1.5762434170274597e+01 1.5762434170274597e+01
-1.5762434170274597e+01 1.5762434170274597e+01
ITEM: ATOMS id type x y z 
2001 2 -0.98298 -1.52466 -0.0369136 
ITEM: TIMESTEP
140000
ITEM: NUMBER OF ATOMS
1
ITEM: BOX BOUNDS pp pp pp
-1.5762434170274597e+01 1.5762434170274597e+01
-1.5762434170274597e+01 1.5762434170274597e+01
-1.5762434170274597e+01 1.5762434170274597e+01
ITEM: ATOMS id type x y z 
2001 2 -0.813156 -1.60651 0.0310925 
ITEM: TIMESTEP
150000
ITEM: NUMBER OF ATOMS
1
ITEM: BOX BOUNDS pp pp pp
-1.5762434170274597e+01 1.5762434170274597e+01
-1.5762434170274597e+01 1.5762434170274597e+01
-1.5762434170274597e+01 1.5762434170274597e+01
ITEM: ATOMS id type x y z 
2001 2 -0.542449 -1.62805 0.00128727 
ITEM: TIMESTEP
160000
ITEM: NUMBER OF ATOMS
1
ITEM: BOX BOUNDS pp pp pp
-1.5762434170274597e+01 1.5762434170274597e+01
-1.5762434170274597e+01 1.5762434170274597e+01
-1.5762434170274597e+01 1.5762434170274597e+01
ITEM: ATOMS id type x y z 
2001 2 -0.844392 -1.58815 -0.0179206 
ITEM: TIMESTEP
170000
ITEM: NUMBER OF ATOMS
1
ITEM: BOX BOUNDS pp pp pp
-1.5762434170274597e+01 1.5762434170274597e+01
-1.5762434170274597e+01 1.5762434170274597e+01
-1.5762434170274597e+01 1.5762434170274597e+01
ITEM: ATOMS id type x y z 
2001 2 -0.731311 -1.50762 0.18808 
ITEM: TIMESTEP
180000
ITEM: NUMBER OF ATOMS
1
ITEM: BOX BOUNDS pp pp pp
-1.5762434170274597e+01 1.5762434170274597e+01
-1.5762434170274597e+01 1.5762434170274597e+01
-1.5762434170274597e+01 1.5762434170274597e+01
ITEM: ATOMS id type x y z 
2001 2 -0.618667 -1.41713 0.00673086 
ITEM: TIMESTEP
190000
ITEM: NUMBER OF ATOMS
1
ITEM: BOX BOUNDS pp pp pp
-1.5762434170274597e+01 1.5762434170274597e+01
-1.5762434170274597e+01 1.5762434170274597e+01
-1.5762434170274597e+01 1.5762434170274597e+01
ITEM: ATOMS id type x y z 
2001 2 -1.03063 -1.47161 -0.0527764 
ITEM: TIMESTEP
200000
ITEM: NUMBER OF ATOMS
1
ITEM: BOX BOUNDS pp pp pp
-1.5762434170274597e+01 1.5762434170274597e+01
-1.5762434170274597e+01 1.5762434170274597e+01
-1.5762434170274597e+01 1.5762434170274597e+01
ITEM: ATOMS id type x y z 
2001 2 -0.709324 -1.58855 -0.0287577 
ITEM: TIMESTEP
210000
ITEM: NUMBER OF ATOMS
1
ITEM: BOX BOUNDS pp pp pp
-1.5762434170274597e+01 1.5762434170274597e+01
-1.5762434170274597e+01 1.5762434170274597e+01
-1.5762434170274597e+01 1.5762434170274597e+01
ITEM: ATOMS id type x y z 
2001 2 -0.634478 -1.65046 0.0314195 
ITEM: TIMESTEP
220000
ITEM: NUMBER OF ATOMS
1
ITEM: BOX BOUNDS pp pp pp
-1.5762434170274597e+01 1.5762434170274597e+01
-1.5762434170274597e+01 1.5762434170274597e+01
-1.5762434170274597e+01 1.5762434170274597e+01
ITEM: ATOMS id type x y z 
2001 2 -0.805591 -1.54298 -0.0573927 
ITEM: TIMESTEP
230000
ITEM: NUMBER OF ATOMS
1
ITEM: BOX BOUNDS pp pp pp
-1.5762434170274597e+01 1.5762434170274597e+01
-1.5762434170274597e+01 1.5762434170274597e+01
-1.5762434170274597e+01 1.5762434170274597e+01
ITEM: ATOMS id type x y z 
2001 2 -0.628557 -1.63979 -0.108593 
ITEM: TIMESTEP
240000
ITEM: NUMBER OF ATOMS
1
ITEM: BOX BOUNDS pp pp pp
-1.5762434170274597e+01 1.5762434170274597e+01
-1.5762434170274597e+01 1.5762434170274597e+01
-1.5762434170274597e+01 1.5762434170274597e+01
ITEM: ATOMS id type x y z 
2001 2 -0.825642 -1.47939 -0.0312452 
ITEM: TIMESTEP
250000
ITEM: NUMBER OF ATOMS
1
ITEM: BOX BOUNDS pp pp pp
-1.5762434170274597e+01 1.5762434170274597e+01
-1.5762434170274597e+01 1.5762434170274597e+01
-1.5762434170274597e+01 1.5762434170274597e+01
ITEM: ATOMS id type x y z 
2001 2 -0.561488 -1.50993 -0.117303 
ITEM: TIMESTEP
260000
ITEM: NUMBER OF ATOMS
1
ITEM: BOX BOUNDS pp pp pp
-1.5762434170274597e+01 1.5762434170274597e+01
-1.5762434170274597e+01 1.5762434170274597e+01
-1.5762434170274597e+01 1.5762434170274597e+01
ITEM: ATOMS id type x y z 
2001 2 -0.509047 -1.43605 0.0625077 
ITEM: TIMESTEP
270000
ITEM: NUMBER OF ATOMS
1
ITEM: BOX BOUNDS pp pp pp
-1.5762434170274597e+01 1.5762434170274597e+01
-1.5762434170274597e+01 1.5762434170274597e+01
-1.5762434170274597e+01 1.5762434170274597e+01
ITEM: ATOMS id type x y z 
2001 2 -0.798668 -1.64246 -0.0650938 
ITEM: TIMESTEP
280000
ITEM: NUMBER OF ATOMS
1
ITEM: BOX BOUNDS pp pp pp
-1.5762434170274597e+01 1.5762434170274597e+01
-1.5762434170274597e+01 1.5762434170274597e+01
-1.5762434170274597e+01 1.5762434170274597e+01
ITEM: ATOMS id type x y z 
2001 2 -0.908121 -1.53258 -0.0364892 
ITEM: TIMESTEP
290000
ITEM: NUMBER OF ATOMS
1
ITEM: BOX BOUNDS pp pp pp
-1.5762434170274597e+01 1.5762434170274597e+01
-1.5762434170274597e+01 1.5762434170274597e+01
-1.5762434170274597e+01 1.5762434170274597e+01
ITEM: ATOMS id type x y z 
2001 2 -0.690025 -1.63821 -0.00925067 
ITEM: TIMESTEP
300000
ITEM: NUMBER OF ATOMS
1
ITEM: BOX BOUNDS pp pp pp
-1.5762434170274597e+01 1.5762434170274597e+01
-1.5762434170274597e+01 1.5762434170274597e+01
-1.5762434170274597e+01 1.5762434170274597e+01
ITEM: ATOMS id type x y z 
2001 2 -0.965087 -1.59475 0.0307676 
ITEM: TIMESTEP
310000
ITEM: NUMBER OF ATOMS
1
ITEM: BOX BOUNDS pp pp pp
-1.5762434170274597e+01 1.5762434170274597e+01
-1.5762434170274597e+01 1.5762434170274597e+01
-1.5762434170274597e+01 1.5762434170274597e+01
ITEM: ATOMS id type x y z 
2001 2 -0.969363 -1.57708 0.0188291 
ITEM: TIMESTEP
320000
ITEM: NUMBER OF ATOMS
1
ITEM: BOX BOUNDS pp pp pp
-1.5762434170274597e+01 1.5762434170274597e+01
-1.5762434170274597e+01 1.5762434170274597e+01
-1.5762434170274597e+01 1.5762434170274597e+01
ITEM: ATOMS id type x y z 
2001 2 -0.847815 -1.48113 0.046901 
ITEM: TIMESTEP
330000
ITEM: NUMBER OF ATOMS
1
ITEM: BOX BOUNDS pp pp pp
-1.5762434170274597e+01 1.5762434170274597e+01
-1.5762434170274597e+01 1.5762434170274597e+01
-1.5762434170274597e+01 1.5762434170274597e+01
ITEM: ATOMS id type x y z 
2001 2 -0.461432 -1.50272 0.00965977 
ITEM: TIMESTEP
340000
ITEM: NUMBER OF ATOMS
1
ITEM: BOX BOUNDS pp pp pp
-1.5762434170274597e+01 1.5762434170274597e+01
-1.5762434170274597e+01 1.5762434170274597e+01
-1.5762434170274597e+01 1.5762434170274597e+01
ITEM: ATOMS id type x y z 
2001 2 0.171992 -1.62688 -0.75968 
ITEM: TIMESTEP
350000
ITEM: NUMBER OF ATOMS
1
ITEM: BOX BOUNDS pp pp pp
-1.5762434170274597e+01 1.5762434170274597e+01
-1.5762434170274597e+01 1.5762434170274597e+01
-1.5762434170274597e+01 1.5762434170274597e+01
ITEM: ATOMS id type x y z 
2001 2 -0.0777077 -1.47857 -0.88442 
ITEM: TIMESTEP
360000
ITEM: NUMBER OF ATOMS
1
ITEM: BOX BOUNDS pp pp pp
-1.5762434170274597e+01 1.5762434170274597e+01
-1.5762434170274597e+01 1.5762434170274597e+01
-1.5762434170274597e+01 1.5762434170274597e+01
ITEM: ATOMS id type x y z 
2001 2 0.0591569 -1.57618 -0.748781 
ITEM: TIMESTEP
370000
ITEM: NUMBER OF ATOMS
1
ITEM: BOX BOUNDS pp pp pp
-1.5762434170274597e+01 1.5762434170274597e+01
-1.5762434170274597e+01 1.5762434170274597e+01
-1.5762434170274597e+01 1.5762434170274597e+01
ITEM: ATOMS id type x y z 
2001 2 -0.0140658 -1.47799 -0.551274 
ITEM: TIMESTEP
380000
ITEM: NUMBER OF ATOMS
1
ITEM: BOX BOUNDS pp pp pp
-1.5762434170274597e+01 1.5762434170274597e+01
-1.5762434170274597e+01 1.5762434170274597e+01
-1.5762434170274597e+01 1.5762434170274597e+01
ITEM: ATOMS id type x y z 
2001 2 0.352022 0.222519 -1.59365 
ITEM: TIMESTEP
390000
ITEM: NUMBER OF ATOMS
1
ITEM: BOX BOUNDS pp pp pp
-1.5762434170274597e+01 1.5762434170274597e+01
-1.5762434170274597e+01 1.5762434170274597e+01
-1.5762434170274597e+01 1.5762434170274597e+01
ITEM: ATOMS id type x y z 
2001 2 -0.000369147 0.847876 -1.59575 
ITEM: TIMESTEP
400000
ITEM: NUMBER OF ATOMS
1
ITEM: BOX BOUNDS pp pp pp
-1.5762434170274597e+01 1.5762434170274597e+01
-1.5762434170274597e+01 1.5762434170274597e+01
-1.5762434170274597e+01 1.5762434170274597e+01
ITEM: ATOMS id type x y z 
2001 2 0.053097 0.948537 -1.6906 
ITEM: TIMESTEP
410000
ITEM: NUMBER OF ATOMS
1
ITEM: BOX BOUNDS pp pp pp
-1.5762434170274597e+01 1.5762434170274597e+01
-1.5762434170274597e+01 1.5762434170274597e+01
-1.5762434170274597e+01 1.5762434170274597e+01
ITEM: ATOMS id type x y z 
2001 2 0.0582925 1.18503 -1.57329 
ITEM: TIMESTEP
420000
ITEM: NUMBER OF ATOMS
1
ITEM: BOX BOUNDS pp pp pp
-1.5762434170274597e+01 1.5762434170274597e+01
-1.5762434170274597e+01 1.5762434170274597e+01
-1.5762434170274597e+01 1.5762434170274597e+01
ITEM: ATOMS id type x y z 
2001 2 0.0151145 0.954603 -1.59558 
ITEM: TIMESTEP
430000
ITEM: NUMBER OF ATOMS
1
ITEM: BOX BOUNDS pp pp pp
-1.5762434170274597e+01 1.5762434170274597e+01
-1.5762434170274597e+01 1.5762434170274597e+01
-1.5762434170274597e+01 1.5762434170274597e+01
ITEM: ATOMS id type x y z 
2001 2 0.00683423 0.886139 -1.61253 
ITEM: TIMESTEP
440000
ITEM: NUMBER OF ATOMS
1
ITEM: BOX BOUNDS pp pp pp
-1.5762434170274597e+01 1.5762434170274597e+01
-1.5762434170274597e+01 1.5762434170274597e+01
-1.5762434170274597e+01 1.5762434170274597e+01
ITEM: ATOMS id type x y z 
2001 2 -0.00376761 1.12204 -1.55176 
ITEM: TIMESTEP
450000
ITEM: NUMBER OF ATOMS
1
ITEM: BOX BOUNDS pp pp pp
-1.5762434170274597e+01 1.5762434170274597e+01
-1.5762434170274597e+01 1.5762434170274597e+01
-1.5762434170274597e+01 1.5762434170274597e+01
ITEM: ATOMS id type x y z 
2001 2 -0.140796 0.659609 -1.64927 
ITEM: TIMESTEP
460000
ITEM: NUMBER OF ATOMS
1
ITEM: BOX BOUNDS pp pp pp
-1.5762434170274597e+01 1.5762434170274597e+01
-1.5762434170274597e+01 1.5762434170274597e+01
-1.5762434170274597e+01 1.5762434170274597e+01
ITEM: ATOMS id type x y z 
2001 2 -0.0677072 0.650766 -1.63517 
ITEM: TIMESTEP
470000
ITEM: NUMBER OF ATOMS
1
ITEM: BOX BOUNDS pp pp pp
-1.5762434170274597e+01 1.5762434170274597e+01
-1.5762434170274597e+01 1.5762434170274597e+01
-1.5762434170274597e+01 1.5762434170274597e+01
ITEM: ATOMS id type x y z 
2001 2 -0.040031 0.924667 -1.6665 
ITEM: TIMESTEP
480000
ITEM: NUMBER OF ATOMS
1
ITEM: BOX BOUNDS pp pp pp
-1.5762434170274597e+01 1.5762434170274597e+01
-1.5762434170274597e+01 1.5762434170274597e+01
-1.5762434170274597e+01 1.5762434170274597e+01
ITEM: ATOMS id type x y z 
2001 2 0.145904 0.554224 -1.57925 
ITEM: TIMESTEP
490000
ITEM: NUMBER OF ATOMS
1
ITEM: BOX BOUNDS pp pp pp
-1.5762434170274597e+01 1.5762434170274597e+01
-1.5762434170274597e+01 1.5762434170274597e+01
-1.5762434170274597e+01 1.5762434170274597e+01
ITEM: ATOMS id type x y z 
2001 2 0.112627 0.553784 -1.60765 
ITEM: TIMESTEP
500000
ITEM: NUMBER OF ATOMS
1
ITEM: BOX BOUNDS pp pp pp
-1.5762434170274597e+01 1.5762434170274597e+01
-1.5762434170274597e+01 1.5762434170274597e+01
-1.5762434170274597e+01 1.5762434170274597e+01
ITEM: ATOMS id type x y z 
2001 2 -0.0287452 1.58898 -0.761199 
ITEM: TIMESTEP
510000
ITEM: NUMBER OF ATOMS
1
ITEM: BOX BOUNDS pp pp pp
-1.5762434170274597e+01 1.5762434170274597e+01
-1.5762434170274597e+01 1.5762434170274597e+01
-1.5762434170274597e+01 1.5762434170274597e+01
ITEM: ATOMS id type x y z 
2001 2 0.0174636 2.55325 -1.62963 
ITEM: TIMESTEP
520000
ITEM: NUMBER OF ATOMS
1
ITEM: BOX BOUNDS pp pp pp
-1.5762434170274597e+01 1.5762434170274597e+01
-1.5762434170274597e+01 1.5762434170274597e+01
-1.5762434170274597e+01 1.5762434170274597e+01
ITEM: ATOMS id type x y z 
2001 2 -0.00517668 2.16089 -1.64805 
ITEM: TIMESTEP
530000
ITEM: NUMBER OF ATOMS
1
ITEM: BOX BOUNDS pp pp pp
-1.5762434170274597e+01 1.5762434170274597e+01
-1.5762434170274597e+01 1.5762434170274597e+01
-1.5762434170274597e+01 1.5762434170274597e+01
ITEM: ATOMS id type x y z 
2001 2 0.0218037 2.38875 -1.5892 
ITEM: TIMESTEP
540000
ITEM: NUMBER OF ATOMS
1
ITEM: BOX BOUNDS pp pp pp
-1.5762434170274597e+01 1.5762434170274597e+01
-1.5762434170274597e+01 1.5762434170274597e+01
-1.5762434170274597e+01 1.5762434170274597e+01
ITEM: ATOMS id type x y z 
2001 2 0.00470187 2.31058 -1.6153 
ITEM: TIMESTEP
550000
ITEM: NUMBER OF ATOMS
1
ITEM: BOX BOUNDS pp pp pp
-1.5762434170274597e+01 1.5762434170274597e+01
-1.5762434170274597e+01 1.5762434170274597e+01
-1.5762434170274597e+01 1.5762434170274597e+01
ITEM: ATOMS id type x y z 
2001 2 0.0938864 2.16212 -1.45428 
ITEM: TIMESTEP
560000
ITEM: NUMBER OF ATOMS
1
ITEM: BOX BOUNDS pp pp pp
-1.5762434170274597e+01 1.5762434170274597e+01
-1.5762434170274597e+01 1.5762434170274597e+01
-1.5762434170274597e+01 1.5762434170274597e+01
ITEM: ATOMS id type x y z 
2001 2 -0.0452009 2.53373 -1.53808 
ITEM: TIMESTEP
570000
ITEM: NUMBER OF ATOMS
1
ITEM: BOX BOUNDS pp pp pp
-1.5762434170274597e+01 1.5762434170274597e+01
-1.5762434170274597e+01 1.5762434170274597e+01
-1.5762434170274597e+01 1.5762434170274597e+01
ITEM: ATOMS id type x y z 
2001 2 0.00364952 2.28436 -1.60949 
ITEM: TIMESTEP
580000
ITEM: NUMBER OF ATOMS
1
ITEM: BOX BOUNDS pp pp pp
-1.5762434170274597e+01 1.5762434170274597e+01
-1.5762434170274597e+01 1.5762434170274597e+01
-1.5762434170274597e+01 1.5762434170274597e+01
ITEM: ATOMS id type x y z 
2001 2 0.00594474 2.39415 -1.63099 
ITEM: TIMESTEP
590000
ITEM: NUMBER OF ATOMS
1
ITEM: BOX BOUNDS pp pp pp
-1.5762434170274597e+01 1.5762434170274597e+01
-1.5762434170274597e+01 1.5762434170274597e+01
-1.5762434170274597e+01 1.5762434170274597e+01
ITEM: ATOMS id type x y z 
2001 2 -0.0491166 1.66364 -2.44461 
ITEM: TIMESTEP
600000
ITEM: NUMBER OF ATOMS
1
ITEM: BOX BOUNDS pp pp pp
-1.5762434170274597e+01 1.5762434170274597e+01
-1.5762434170274597e+01 1.5762434170274597e+01
-1.5762434170274597e+01 1.5762434170274597e+01
ITEM: ATOMS id type x y z 
2001 2 0.0589284 1.57797 -2.0987 
ITEM: TIMESTEP
610000
ITEM: NUMBER OF ATOMS
1
ITEM: BOX BOUNDS pp pp pp
-1.5762434170274597e+01 1.5762434170274597e+01
-1.5762434170274597e+01 1.5762434170274597e+01
-1.5762434170274597e+01 1.5762434170274597e+01
ITEM: ATOMS id type x y z 
2001 2 0.115369 1.68238 -2.28657 
ITEM: TIMESTEP
620000
ITEM: NUMBER OF ATOMS
1
ITEM: BOX BOUNDS pp pp pp
-1.5762434170274597e+01 1.5762434170274597e+01
-1.5762434170274597e+01 1.5762434170274597e+01
-1.5762434170274597e+01 1.5762434170274597e+01
ITEM: ATOMS id type x y z 
2001 2 -0.0515062 1.58486 -2.41303 
ITEM: TIMESTEP
630000
ITEM: NUMBER OF ATOMS
1
ITEM: BOX BOUNDS pp pp pp
-1.5762434170274597e+01 1.5762434170274597e+01
-1.5762434170274597e+01 1.5762434170274597e+01
-1.5762434170274597e+01 1.5762434170274597e+01
ITEM: ATOMS id type x y z 
2001 2 -0.0110226 1.49795 -2.53388 
ITEM: TIMESTEP
640000
ITEM: NUMBER OF ATOMS
1
ITEM: BOX BOUNDS pp pp pp
-1.5762434170274597e+01 1.5762434170274597e+01
-1.5762434170274597e+01 1.5762434170274597e+01
-1.5762434170274597e+01 1.5762434170274597e+01
ITEM: ATOMS id type x y z 
2001 2 0.00826056 1.69606 -2.38485 
ITEM: TIMESTEP
650000
ITEM: NUMBER OF ATOMS
1
ITEM: BOX BOUNDS pp pp pp
-1.5762434170274597e+01 1.5762434170274597e+01
-1.5762434170274597e+01 1.5762434170274597e+01
-1.5762434170274597e+01 1.5762434170274597e+01
ITEM: ATOMS id type x y z 
2001 2 0.0430252 1.56579 -2.66693 
ITEM: TIMESTEP
660000
ITEM: NUMBER OF ATOMS
1
ITEM: BOX BOUNDS pp pp pp
-1.5762434170274597e+01 1.5762434170274597e+01
-1.5762434170274597e+01 1.5762434170274597e+01
-1.5762434170274597e+01 1.5762434170274597e+01
ITEM: ATOMS id type x y z 
2001 2 0.0184113 1.65269 -2.32018 
ITEM: TIMESTEP
670000
ITEM: NUMBER OF ATOMS
1
ITEM: BOX BOUNDS pp pp pp
-1.5762434170274597e+01 1.5762434170274597e+01
-1.5762434170274597e+01 1.5762434170274597e+01
-1.5762434170274597e+01 1.5762434170274597e+01
ITEM: ATOMS id type x y z 
2001 2 -0.0641283 0.543861 -1.58868 
ITEM: TIMESTEP
680000
ITEM: NUMBER OF ATOMS
1
ITEM: BOX BOUNDS pp pp pp
-1.5762434170274597e+01 1.5762434170274597e+01
-1.5762434170274597e+01 1.5762434170274597e+01
-1.5762434170274597e+01 1.5762434170274597e+01
ITEM: ATOMS id type x y z 
2001 2 0.0290145 0.752348 -1.52915 
ITEM: TIMESTEP
690000
ITEM: NUMBER OF ATOMS
1
ITEM: BOX BOUNDS pp pp pp
-1.5762434170274597e+01 1.5762434170274597e+01
-1.5762434170274597e+01 1.5762434170274597e+01
-1.5762434170274597e+01 1.5762434170274597e+01
ITEM: ATOMS id type x y z 
2001 2 0.0372874 0.701294 -1.60735 
ITEM: TIMESTEP
700000
ITEM: NUMBER OF ATOMS
1
ITEM: BOX BOUNDS pp pp pp
-1.5762434170274597e+01 1.5762434170274597e+01
-1.5762434170274597e+01 1.5762434170274597e+01
-1.5762434170274597e+01 1.5762434170274597e+01
ITEM: ATOMS id type x y z 
2001 2 0.119804 0.438709 -1.57641 
ITEM: TIMESTEP
710000
ITEM: NUMBER OF ATOMS
1
ITEM: BOX BOUNDS pp pp pp
-1.5762434170274597e+01 1.5762434170274597e+01
-1.5762434170274597e+01 1.5762434170274597e+01
-1.5762434170274597e+01 1.5762434170274597e+01
ITEM: ATOMS id type x y z 
2001 2 -0.11975 0.966796 -1.62271 
ITEM: TIMESTEP
720000
ITEM: NUMBER OF ATOMS
1
ITEM: BOX BOUNDS pp pp pp
-1.5762434170274597e+01 1.5762434170274597e+01
-1.5762434170274597e+01 1.5762434170274597e+01
-1.5762434170274597e+01 1.5762434170274597e+01
ITEM: ATOMS id type x y z 
2001 2 0.0894764 0.764132 -1.57455 
ITEM: TIMESTEP
730000
ITEM: NUMBER OF ATOMS
1
ITEM: BOX BOUNDS pp pp pp
-1.5762434170274597e+01 1.5762434170274597e+01
-1.5762434170274597e+01 1.5762434170274597e+01
-1.5762434170274597e+01 1.5762434170274597e+01
ITEM: ATOMS id type x y z 
2001 2 0.043768 0.921664 -1.48788 
ITEM: TIMESTEP
740000
ITEM: NUMBER OF ATOMS
1
ITEM: BOX BOUNDS pp pp pp
-1.5762434170274597e+01 1.5762434170274597e+01
-1.5762434170274597e+01 1.5762434170274597e+01
-1.5762434170274597e+01 1.5762434170274597e+01
ITEM: ATOMS id type x y z 
2001 2 -0.0410451 0.742979 -1.59486 
ITEM: TIMESTEP
750000
ITEM: NUMBER OF ATOMS
1
ITEM: BOX BOUNDS pp pp pp
-1.5762434170274597e+01 1.5762434170274597e+01
-1.5762434170274597e+01 1.5762434170274597e+01
-1.5762434170274597e+01 1.5762434170274597e+01
ITEM: ATOMS id type x y z 
2001 2 -0.00993324 0.965489 -1.49801 
ITEM: TIMESTEP
760000
ITEM: NUMBER OF ATOMS
1
ITEM: BOX BOUNDS pp pp pp
-1.5762434170274597e+01 1.5762434170274597e+01
-1.5762434170274597e+01 1.5762434170274597e+01
-1.5762434170274597e+01 1.5762434170274597e+01
ITEM: ATOMS id type x y z 
2001 2 -0.040816 0.759934 -1.55834 
ITEM: TIMESTEP
770000
ITEM: NUMBER OF ATOMS
1
ITEM: BOX BOUNDS pp pp pp
-1.5762434170274597e+01 1.5762434170274597e+01
-1.5762434170274597e+01 1.5762434170274597e+01
-1.5762434170274597e+01 1.5762434170274597e+01
ITEM: ATOMS id type x y z 
2001 2 0.104712 0.538792 -1.63261 
ITEM: TIMESTEP
780000
ITEM: NUMBER OF ATOMS
1
ITEM: BOX BOUNDS pp pp pp
-1.5762434170274597e+01 1.5762434170274597e+01
-1.5762434170274597e+01 1.5762434170274597e+01
-1.5762434170274597e+01 1.5762434170274597e+01
ITEM: ATOMS id type x y z 
2001 2 0.0484761 0.702829 -1.61466 
ITEM: TIMESTEP
790000
ITEM: NUMBER OF ATOMS
1
ITEM: BOX BOUNDS pp pp pp
-1.5762434170274597e+01 1.5762434170274597e+01
-1.5762434170274597e+01 1.5762434170274597e+01
-1.5762434170274597e+01 1.5762434170274597e+01
ITEM: ATOMS id type x y z 
2001 2 0.0296041 0.780061 -1.48609 
ITEM: TIMESTEP
800000
ITEM: NUMBER OF ATOMS
1
ITEM: BOX BOUNDS pp pp pp
-1.5762434170274597e+01 1.5762434170274597e+01
-1.5762434170274597e+01 1.5762434170274597e+01
-1.5762434170274597e+01 1.5762434170274597e+01
ITEM: ATOMS id type x y z 
2001 2 0.0858837 0.909802 -1.62482 
ITEM: TIMESTEP
810000
ITEM: NUMBER OF ATOMS
1
ITEM: BOX BOUNDS pp pp pp
-1.5762434170274597e+01 1.5762434170274597e+01
-1.5762434170274597e+01 1.5762434170274597e+01
-1.5762434170274597e+01 1.5762434170274597e+01
ITEM: ATOMS id type x y z 
2001 2 -0.107168 0.584746 -1.53191 
ITEM: TIMESTEP
820000
ITEM: NUMBER OF ATOMS
1
ITEM: BOX BOUNDS pp pp pp
-1.5762434170274597e+01 1.5762434170274597e+01
-1.5762434170274597e+01 1.5762434170274597e+01
-1.5762434170274597e+01 1.5762434170274597e+01
ITEM: ATOMS id type x y z 
2001 2 -0.00442076 0.856475 -1.67146 
ITEM: TIMESTEP
830000
ITEM: NUMBER OF ATOMS
1
ITEM: BOX BOUNDS pp pp pp
-1.5762434170274597e+01 1.5762434170274597e+01
-1.5762434170274597e+01 1.5762434170274597e+01
-1.5762434170274597e+01 1.5762434170274597e+01
ITEM: ATOMS id type x y z 
2001 2 -0.0979171 0.544386 -1.63003 
ITEM: TIMESTEP
840000
ITEM: NUMBER OF ATOMS
1
ITEM: BOX BOUNDS pp pp pp
-1.5762434170274597e+01 1.5762434170274597e+01
-1.5762434170274597e+01 1.5762434170274597e+01
-1.5762434170274597e+01 1.5762434170274597e+01
ITEM: ATOMS id type x y z 
2001 2 0.0326789 0.75999 -1.57139 
ITEM: TIMESTEP
850000
ITEM: NUMBER OF ATOMS
1
ITEM: BOX BOUNDS pp pp pp
-1.5762434170274597e+01 1.5762434170274597e+01
-1.5762434170274597e+01 1.5762434170274597e+01
-1.5762434170274597e+01 1.5762434170274597e+01
ITEM: ATOMS id type x y z 
2001 2 0.097204 0.828977 -1.70195 
ITEM: TIMESTEP
860000
ITEM: NUMBER OF ATOMS
1
ITEM: BOX BOUNDS pp pp pp
-1.5762434170274597e+01 1.5762434170274597e+01
-1.5762434170274597e+01 1.5762434170274597e+01
-1.5762434170274597e+01 1.5762434170274597e+01
ITEM: ATOMS id type x y z 
2001 2 -0.0531476 0.933388 -1.60429 
ITEM: TIMESTEP
870000
ITEM: NUMBER OF ATOMS
1
ITEM: BOX BOUNDS pp pp pp
-1.5762434170274597e+01 1.5762434170274597e+01
-1.5762434170274597e+01 1.5762434170274597e+01
-1.5762434170274597e+01 1.5762434170274597e+01
ITEM: ATOMS id type x y z 
2001 2 -0.0667029 0.893939 -1.65505 
ITEM: TIMESTEP
880000
ITEM: NUMBER OF ATOMS
1
ITEM: BOX BOUNDS pp pp pp
-1.5762434170274597e+01 1.5762434170274597e+01
-1.5762434170274597e+01 1.5762434170274597e+01
-1.5762434170274597e+01 1.5762434170274597e+01
ITEM: ATOMS id type x y z 
2001 2 0.0525418 0.802583 -1.5797 
ITEM: TIMESTEP
890000
ITEM: NUMBER OF ATOMS
1
ITEM: BOX BOUNDS pp pp pp
-1.5762434170274597e+01 1.5762434170274597e+01
-1.5762434170274597e+01 1.5762434170274597e+01
-1.5762434170274597e+01 1.5762434170274597e+01
ITEM: ATOMS id type x y z 
2001 2 -0.0133386 0.851023 -1.50064 
ITEM: TIMESTEP
900000
ITEM: NUMBER OF ATOMS
1
ITEM: BOX BOUNDS pp pp pp
-1.5762434170274597e+01 1.5762434170274597e+01
-1.5762434170274597e+01 1.5762434170274597e+01
-1.5762434170274597e+01 1.5762434170274597e+01
ITEM: ATOMS id type x y z 
2001 2 0.128203 0.320095 -1.55958 
ITEM: TIMESTEP
910000
ITEM: NUMBER OF ATOMS
1
ITEM: BOX BOUNDS pp pp pp
-1.5762434170274597e+01 1.5762434170274597e+01
-1.5762434170274597e+01 1.5762434170274597e+01
-1.5762434170274597e+01 1.5762434170274597e+01
ITEM: ATOMS id type x y z 
2001 2 0.0751491 0.830835 -1.53559 
ITEM: TIMESTEP
920000
ITEM: NUMBER OF ATOMS
1
ITEM: BOX BOUNDS pp pp pp
-1.5762434170274597e+01 1.5762434170274597e+01
-1.5762434170274597e+01 1.5762434170274597e+01
-1.5762434170274597e+01 1.5762434170274597e+01
ITEM: ATOMS id type x y z 
2001 2 0.0128447 0.872396 -1.63855 
ITEM: TIMESTEP
930000
ITEM: NUMBER OF ATOMS
1
ITEM: BOX BOUNDS pp pp pp
-1.5762434170274597e+01 1.5762434170274597e+01
-1.5762434170274597e+01 1.5762434170274597e+01
-1.5762434170274597e+01 1.5762434170274597e+01
ITEM: ATOMS id type x y z 
2001 2 -0.066812 0.587096 -1.57289 
ITEM: TIMESTEP
940000
ITEM: NUMBER OF ATOMS
1
ITEM: BOX BOUNDS pp pp pp
-1.5762434170274597e+01 1.5762434170274597e+01
-1.5762434170274597e+01 1.5762434170274597e+01
-1.5762434170274597e+01 1.5762434170274597e+01
ITEM: ATOMS id type x y z 
2001 2 0.0738981 0.729368 -1.62093 
ITEM: TIMESTEP
950000
ITEM: NUMBER OF ATOMS
1
ITEM: BOX BOUNDS pp pp pp
-1.5762434170274597e+01 1.5762434170274597e+01
-1.5762434170274597e+01 1.5762434170274597e+01
-1.5762434170274597e+01 1.5762434170274597e+01
ITEM: ATOMS id type x y z 
2001 2 0.0693342 0.328217 -1.59773 
ITEM: TIMESTEP
960000
ITEM: NUMBER OF ATOMS
1
ITEM: BOX BOUNDS pp pp pp
-1.5762434170274597e+01 1.5762434170274597e+01
-1.5762434170274597e+01 1.5762434170274597e+01
-1.5762434170274597e+01 1.5762434170274597e+01
ITEM: ATOMS id type x y z 
2001 2 0.0812395 0.700613 -1.53662 
ITEM: TIMESTEP
970000
ITEM: NUMBER OF ATOMS
1
ITEM: BOX BOUNDS pp pp pp
-1.5762434170274597e+01 1.5762434170274597e+01
-1.5762434170274597e+01 1.5762434170274597e+01
-1.5762434170274597e+01 1.5762434170274597e+01
ITEM: ATOMS id type x y z 
2001 2 0.0195788 0.741186 -1.57838 
ITEM: TIMESTEP
980000
ITEM: NUMBER OF ATOMS
1
ITEM: BOX BOUNDS pp pp pp
-1.5762434170274597e+01 1.5762434170274597e+01
-1.5762434170274597e+01 1.5762434170274597e+01
-1.5762434170274597e+01 1.5762434170274597e+01
ITEM: ATOMS id type x y z 
2001 2 -0.0359257 0.92636 -1.43487 
ITEM: TIMESTEP
990000
ITEM: NUMBER OF ATOMS
1
ITEM: BOX BOUNDS pp pp pp
-1.5762434170274597e+01 1.5762434170274597e+01
-1.5762434170274597e+01 1.5762434170274597e+01
-1.5762434170274597e+01 1.5762434170274597e+01
ITEM: ATOMS id type x y z 
2001 2 -0.0520386 0.696445 -1.48235 
ITEM: TIMESTEP
1000000
ITEM: NUMBER OF ATOMS
1
ITEM: BOX BOUNDS pp pp pp
-1.5762434170274597e+01 1.5762434170274597e+01
-1.5762434170274597e+01 1.5762434170274597e+01
-1.5762434170274597e+01 1.5762434170274597e+01
ITEM: ATOMS id type x y z 
2001 2 -0.0187676 0.916866 -1.53066 
ITEM: TIMESTEP
1010000
ITEM: NUMBER OF ATOMS
1
ITEM: BOX BOUNDS pp pp pp
-1.5762434170274597e+01 1.5762434170274597e+01
-1.5762434170274597e+01 1.5762434170274597e+01
-1.5762434170274597e+01 1.5762434170274597e+01
ITEM: ATOMS id type x y z 
2001 2 -0.0724434 0.755525 -1.65606 
ITEM: TIMESTEP
1020000
ITEM: NUMBER OF ATOMS
1
ITEM: BOX BOUNDS pp pp pp
-1.5762434170274597e+01 1.5762434170274597e+01
-1.5762434170274597e+01 1.5762434170274597e+01
-1.5762434170274597e+01 1.5762434170274597e+01
ITEM: ATOMS id type x y z 
2001 2 0.0770094 0.805569 -1.59293 
ITEM: TIMESTEP
1030000
ITEM: NUMBER OF ATOMS
1
ITEM: BOX BOUNDS pp pp pp
-1.5762434170274597e+01 1.5762434170274597e+01
-1.5762434170274597e+01 1.5762434170274597e+01
-1.5762434170274597e+01 1.5762434170274597e+01
ITEM: ATOMS id type x y z 
2001 2 -0.0141714 -0.908231 -1.75975 
ITEM: TIMESTEP
1040000
ITEM: NUMBER OF ATOMS
1
ITEM: BOX BOUNDS pp pp pp
-1.5762434170274597e+01 1.5762434170274597e+01
-1.5762434170274597e+01 1.5762434170274597e+01
-1.5762434170274597e+01 1.5762434170274597e+01
ITEM: ATOMS id type x y z 
2001 2 0.02612 -0.865588 -1.5214 
ITEM: TIMESTEP
1050000
ITEM: NUMBER OF ATOMS
1
ITEM: BOX BOUNDS pp pp pp
-1.5762434170274597e+01 1.5762434170274597e+01
-1.5762434170274597e+01 1.5762434170274597e+01
-1.5762434170274597e+01 1.5762434170274597e+01
ITEM: ATOMS id type x y z 
2001 2 0.0705904 -0.966156 -1.70372 
ITEM: TIMESTEP
1060000
ITEM: NUMBER OF ATOMS
1
ITEM: BOX BOUNDS pp pp pp
-1.5762434170274597e+01 1.5762434170274597e+01
-1.5762434170274597e+01 1.5762434170274597e+01
-1.5762434170274597e+01 1.5762434170274597e+01
ITEM: ATOMS id type x y z 
2001 2 0.0979476 -0.545798 -1.55383 
ITEM: TIMESTEP
1070000
ITEM: NUMBER OF ATOMS
1
ITEM: BOX BOUNDS pp pp pp
-1.5762434170274597e+01 1.5762434170274597e+01
-1.5762434170274597e+01 1.5762434170274597e+01
-1.5762434170274597e+01 1.5762434170274597e+01
ITEM: ATOMS id type x y z 
2001 2 -0.0243275 -1.59562 -2.06087 
ITEM: TIMESTEP
1080000
ITEM: NUMBER OF ATOMS
1
ITEM: BOX BOUNDS pp pp pp
-1.5762434170274597e+01 1.5762434170274597e+01
-1.5762434170274597e+01 1.5762434170274597e+01
-1.5762434170274597e+01 1.5762434170274597e+01
ITEM: ATOMS id type x y z 
2001 2 -0.118957 -0.762667 -1.57751 
ITEM: TIMESTEP
1090000
ITEM: NUMBER OF ATOMS
1
ITEM: BOX BOUNDS pp pp pp
-1.5762434170274597e+01 1.5762434170274597e+01