ITEM: TIMESTEP
10000
ITEM: NUMBER OF ATOMS
1
ITEM: BOX BOUNDS pp pp pp
-1.5762434170274597e+01 1.5762434170274597e+01
-1.5762434170274597e+01 1.5762434170274597e+01
-1.5762434170274597e+01 1.5762434170274597e+01
ITEM: ATOMS id type x y z 
2001 2 -0.504798 -1.53513 0.0775794 
ITEM: TIMESTEP
20000
ITEM: NUMBER OF ATOMS
1
ITEM: BOX BOUNDS pp pp pp
-1.5762434170274597e+01 1.5762434170274597e+01
-1.5762434170274597e+01 1.5762434170274597e+01
-1.5762434170274597e+01 1.5762434170274597e+01
ITEM: ATOMS id type x y z 
2001 2 -1.04434 -1.50414 -0.00211973 
ITEM: TIMESTEP
30000
ITEM: NUMBER OF ATOMS
1
ITEM: BOX BOUNDS pp pp pp
-1.5762434170274597e+01 1.5762434170274597e+01
-1.5762434170274597e+01 1.5762434170274597e+01
-1.5762434170274597e+01 1.5762434170274597e+01
ITEM: ATOMS id type x y z 
2001 2 -0.73985 -1.61059 -0.0113101 
ITEM: TIMESTEP
40000
ITEM: NUMBER OF ATOMS
1
ITEM: BOX BOUNDS pp pp pp
-1.5762434170274597e+01 1.5762434170274597e+01
-1.5762434170274597e+01 1.5762434170274597e+01
-1.5762434170274597e+01 1.5762434170274597e+01
ITEM: ATOMS id type x y z 
2001 2 -1.57144 -0.770404 0.0382417 
ITEM: TIMESTEP
50000
ITEM: NUMBER OF ATOMS
1
ITEM: BOX BOUNDS pp pp pp
-1.5762434170274597e+01 1.5762434170274597e+01
-1.5762434170274597e+01 1.5762434170274597e+01
-1.5762434170274597e+01 1.5762434170274597e+01
ITEM: ATOMS id type x y z 
2001 2 -1.52802 -0.732042 0.0821343 
ITEM: TIMESTEP
60000
ITEM: NUMBER OF ATOMS
1
ITEM: BOX BOUNDS pp pp pp
-1.5762434170274597e+01 1.5762434170274597e+01
-1.5762434170274597e+01 1.5762434170274597e+01
-1.5762434170274597e+01 1.5762434170274597e+01
ITEM: ATOMS id type x y z 
2001 2 -1.51685 -0.779418 0.109218 
ITEM: TIMESTEP
70000
ITEM: NUMBER OF ATOMS
1
ITEM: BOX BOUNDS pp pp pp
-1.5762434170274597e+01 1.5762434170274597e+01
-1.5762434170274597e+01 1.5762434170274597e+01
-1.5762434170274597e+01 1.5762434170274597e+01
ITEM: ATOMS id type x y z 
2001 2 -1.65676 -0.768729 0.0314353 
ITEM: TIMESTEP
80000
ITEM: NUMBER OF ATOMS
1
ITEM: BOX BOUNDS pp pp pp
-1.5762434170274597e+01 1.5762434170274597e+01
-1.5762434170274597e+01 1.5762434170274597e+01
-1.5762434170274597e+01 1.5762434170274597e+01
ITEM: ATOMS id type x y z 
2001 2 -1.62352 -0.899048 0.108101 
ITEM: TIMESTEP
90000
ITEM: NUMBER OF ATOMS
1
ITEM: BOX BOUNDS pp pp pp
-1.5762434170274597e+01 1.5762434170274597e+01
-1.5762434170274597e+01 1.5762434170274597e+01
-1.5762434170274597e+01 1.5762434170274597e+01
ITEM: ATOMS id type x y z 
2001 2 -1.62192 -0.763078 -0.0373861 
ITEM: TIMESTEP
100000
ITEM: NUMBER OF ATOMS
1
ITEM: BOX BOUNDS pp pp pp
-1.5762434170274597e+01 1.5762434170274597e+01
-1.5762434170274597e+01 1.5762434170274597e+01
-1.5762434170274597e+01 1.5762434170274597e+01
ITEM: ATOMS id type x y z 
2001 2 -1.50848 -0.771333 -0.106001 
ITEM: TIMESTEP
110000
ITEM: NUMBER OF ATOMS
1
ITEM: BOX BOUNDS pp pp pp
-1.5762434170274597e+01 1.5762434170274597e+01
-1.5762434170274597e+01 1.5762434170274597e+01
-1.5762434170274597e+01 1.5762434170274597e+01
ITEM: ATOMS id type x y z 
2001 2 -1.53739 0.0870389 0.691049 
ITEM: TIMESTEP
120000
ITEM: NUMBER OF ATOMS
1
ITEM: BOX BOUNDS pp pp pp
-1.5762434170274597e+01 1.5762434170274597e+01
-1.5762434170274597e+01 1.5762434170274597e+01
-1.5762434170274597e+01 1.5762434170274597e+01
ITEM: ATOMS id type x y z 
2001 2 -1.58157 -0.0345112 0.506227 
ITEM: TIMESTEP
130000
ITEM: NUMBER OF ATOMS
1
ITEM: BOX BOUNDS pp pp pp
-1.5762434170274597e+01 1.5762434170274597e+01
-1.5762434170274597e+01 1.5762434170274597e+01
-1.5762434170274597e+01 1.5762434170274597e+01
ITEM: ATOMS id type x y z 
2001 2 -1.56772 -0.0223054 0.742505 
ITEM: TIMESTEP
140000
ITEM: NUMBER OF ATOMS
1
ITEM: BOX BOUNDS pp pp pp
-1.5762434170274597e+01 1.5762434170274597e+01
-1.5762434170274597e+01 1.5762434170274597e+01
-1.5762434170274597e+01 1.5762434170274597e+01
ITEM: ATOMS id type x y z 
2001 2 -1.50382 -0.0450782 0.715846 
ITEM: TIMESTEP
150000
ITEM: NUMBER OF ATOMS
1
ITEM: BOX BOUNDS pp pp pp
-1.5762434170274597e+01 1.5762434170274597e+01
-1.5762434170274597e+01 1.5762434170274597e+01
-1.5762434170274597e+01 1.5762434170274597e+01
ITEM: ATOMS id type x y z 
2001 2 -1.52435 0.0957336 0.674297 
ITEM: TIMESTEP
160000
ITEM: NUMBER OF ATOMS
1
ITEM: BOX BOUNDS pp pp pp
-1.5762434170274597e+01 1.5762434170274597e+01
-1.5762434170274597e+01 1.5762434170274597e+01
-1.5762434170274597e+01 1.5762434170274597e+01
ITEM: ATOMS id type x y z 
2001 2 -1.56549 -0.0385506 0.782127 
ITEM: TIMESTEP
170000
ITEM: NUMBER OF ATOMS
1
ITEM: BOX BOUNDS pp pp pp
-1.5762434170274597e+01 1.5762434170274597e+01
-1.5762434170274597e+01 1.5762434170274597e+01
-1.5762434170274597e+01 1.5762434170274597e+01
ITEM: ATOMS id type x y z 
2001 2 -1.54693 -0.056539 0.947354 
ITEM: TIMESTEP
180000
ITEM: NUMBER OF ATOMS
1
ITEM: BOX BOUNDS pp pp pp
-1.5762434170274597e+01 1.5762434170274597e+01
-1.5762434170274597e+01 1.5762434170274597e+01
-1.5762434170274597e+01 1.5762434170274597e+01
ITEM: ATOMS id type x y z 
2001 2 -1.62849 -0.00443484 0.845117 
ITEM: TIMESTEP
190000
ITEM: NUMBER OF ATOMS
1
ITEM: BOX BOUNDS pp pp pp
-1.5762434170274597e+01 1.5762434170274597e+01
-1.5762434170274597e+01 1.5762434170274597e+01
-1.5762434170274597e+01 1.5762434170274597e+01
ITEM: ATOMS id type x y z 
2001 2 -1.54402 0.0958857 0.654484 
ITEM: TIMESTEP
200000
ITEM: NUMBER OF ATOMS
1
ITEM: BOX BOUNDS pp pp pp
-1.5762434170274597e+01 1.5762434170274597e+01
-1.5762434170274597e+01 1.5762434170274597e+01
-1.5762434170274597e+01 1.5762434170274597e+01
ITEM: ATOMS id type x y z 
2001 2 -1.62313 0.000547523 0.894334 
ITEM: TIMESTEP
210000
ITEM: NUMBER OF ATOMS
1
ITEM: BOX BOUNDS pp pp pp
-1.5762434170274597e+01 1.5762434170274597e+01
-1.5762434170274597e+01 1.5762434170274597e+01
-1.5762434170274597e+01 1.5762434170274597e+01
ITEM: ATOMS id type x y z 
2001 2 -1.56658 0.03109 0.582537 
ITEM: TIMESTEP
220000
ITEM: NUMBER OF ATOMS
1
ITEM: BOX BOUNDS pp pp pp
-1.5762434170274597e+01 1.5762434170274597e+01
-1.5762434170274597e+01 1.5762434170274597e+01
-1.5762434170274597e+01 1.5762434170274597e+01
ITEM: ATOMS id type x y z 
2001 2 -1.60732 0.136249 0.698838 
ITEM: TIMESTEP
230000
ITEM: NUMBER OF ATOMS
1
ITEM: BOX BOUNDS pp pp pp
-1.5762434170274597e+01 1.5762434170274597e+01
-1.5762434170274597e+01 1.5762434170274597e+01
-1.5762434170274597e+01 1.5762434170274597e+01
ITEM: ATOMS id type x y z 
2001 2 -1.62085 -0.0626374 0.730296 
ITEM: TIMESTEP
240000
ITEM: NUMBER OF ATOMS
1
ITEM: BOX BOUNDS pp pp pp
-1.5762434170274597e+01 1.5762434170274597e+01
-1.5762434170274597e+01 1.5762434170274597e+01
-1.5762434170274597e+01 1.5762434170274597e+01
ITEM: ATOMS id type x y z 
2001 2 -1.69073 -0.0635913 0.684125 
ITEM: TIMESTEP
250000
ITEM: NUMBER OF ATOMS
1
ITEM: BOX BOUNDS pp pp pp
-1.5762434170274597e+01 1.5762434170274597e+01
-1.5762434170274597e+01 1.5762434170274597e+01
-1.5762434170274597e+01 1.5762434170274597e+01
ITEM: ATOMS id type x y z 
2001 2 -1.51926 -0.0212399 0.820426 
ITEM: TIMESTEP
260000
ITEM: NUMBER OF ATOMS
1
ITEM: BOX BOUNDS pp pp pp
-1.5762434170274597e+01 1.5762434170274597e+01
-1.5762434170274597e+01 1.5762434170274597e+01
-1.5762434170274597e+01 1.5762434170274597e+01
ITEM: ATOMS id type x y z 
2001 2 -1.57773 0.0499359 0.749175 
ITEM: TIMESTEP
270000
ITEM: NUMBER OF ATOMS
1
ITEM: BOX BOUNDS pp pp pp
-1.5762434170274597e+01 1.5762434170274597e+01
-1.5762434170274597e+01 1.5762434170274597e+01
-1.5762434170274597e+01 1.5762434170274597e+01
ITEM: ATOMS id type x y z 
2001 2 -1.53992 -0.0620615 0.834962 
ITEM: TIMESTEP
280000
ITEM: NUMBER OF ATOMS
1
ITEM: BOX BOUNDS pp pp pp
-1.5762434170274597e+01 1.5762434170274597e+01
-1.5762434170274597e+01 1.5762434170274597e+01
-1.5762434170274597e+01 1.5762434170274597e+01
ITEM: ATOMS id type x y z 
2001 2 -1.6578 0.0566136 1.05071 
ITEM: TIMESTEP
290000
ITEM: NUMBER OF ATOMS
1
ITEM: BOX BOUNDS pp pp pp
-1.5762434170274597e+01 1.5762434170274597e+01
-1.5762434170274597e+01 1.5762434170274597e+01
-1.5762434170274597e+01 1.5762434170274597e+01
ITEM: ATOMS id type x y z 
2001 2 -1.59913 0.0246774 0.923068 
ITEM: TIMESTEP
300000
ITEM: NUMBER OF ATOMS
1
ITEM: BOX BOUNDS pp pp pp
-1.5762434170274597e+01 1.5762434170274597e+01
-1.5762434170274597e+01 1.5762434170274597e+01
-1.5762434170274597e+01 1.5762434170274597e+01
ITEM: ATOMS id type x y z 
2001 2 -1.57354 0.0181816 0.7664 
ITEM: TIMESTEP
310000
ITEM: NUMBER OF ATOMS
1
ITEM: BOX BOUNDS pp pp pp
-1.5762434170274597e+01 1.5762434170274597e+01
-1.5762434170274597e+01 1.5762434170274597e+01
-1.5762434170274597e+01 1.5762434170274597e+01
ITEM: ATOMS id type x y z 
2001 2 -1.7223 0.00909352 0.789797 
ITEM: TIMESTEP
320000
ITEM: NUMBER OF ATOMS
1
ITEM: BOX BOUNDS pp pp pp
-1.5762434170274597e+01 1.5762434170274597e+01
-1.5762434170274597e+01 1.5762434170274597e+01
-1.5762434170274597e+01 1.5762434170274597e+01
ITEM: ATOMS id type x y z 
2001 2 -1.57463 0.036202 0.687555 
ITEM: TIMESTEP
330000
ITEM: NUMBER OF ATOMS
1
ITEM: BOX BOUNDS pp pp pp
-1.5762434170274597e+01 1.5762434170274597e+01
-1.5762434170274597e+01 1.5762434170274597e+01
-1.5762434170274597e+01 1.5762434170274597e+01
ITEM: ATOMS id type x y z 
2001 2 -1.56481 0.025624 0.64793 
ITEM: TIMESTEP
340000
ITEM: NUMBER OF ATOMS
1
ITEM: BOX BOUNDS pp pp pp
-1.5762434170274597e+01 1.5762434170274597e+01
-1.5762434170274597e+01 1.5762434170274597e+01
-1.5762434170274597e+01 1.5762434170274597e+01
ITEM: ATOMS id type x y z 
2001 2 -1.64613 0.0962934 0.946655 
ITEM: TIMESTEP
350000
ITEM: NUMBER OF ATOMS
1
ITEM: BOX BOUNDS pp pp pp
-1.5762434170274597e+01 1.5762434170274597e+01
-1.5762434170274597e+01 1.5762434170274597e+01
-1.5762434170274597e+01 1.5762434170274597e+01
ITEM: ATOMS id type x y z 
2001 2 -1.48423 0.0675091 0.946452 
ITEM: TIMESTEP
360000
ITEM: NUMBER OF ATOMS
1
ITEM: BOX BOUNDS pp pp pp
-1.5762434170274597e+01 1.5762434170274597e+01
-1.5762434170274597e+01 1.5762434170274597e+01
-1.5762434170274597e+01 1.5762434170274597e+01
ITEM: ATOMS id type x y z 
2001 2 -1.47903 0.015518 0.868285 
ITEM: TIMESTEP
370000
ITEM: NUMBER OF ATOMS
1
ITEM: BOX BOUNDS pp pp pp
-1.5762434170274597e+01 1.5762434170274597e+01
-1.5762434170274597e+01 1.5762434170274597e+01
-1.5762434170274597e+01 1.5762434170274597e+01
ITEM: ATOMS id type x y z 
2001 2 -1.54223 0.0449417 0.903851 
ITEM: TIMESTEP
380000
ITEM: NUMBER OF ATOMS
1
ITEM: BOX BOUNDS pp pp pp
-1.5762434170274597e+01 1.5762434170274597e+01
-1.5762434170274597e+01 1.5762434170274597e+01
-1.5762434170274597e+01 1.5762434170274597e+01
ITEM: ATOMS id type x y z 
2001 2 -1.64924 0.0321442 0.956706 
ITEM: TIMESTEP
390000
ITEM: NUMBER OF ATOMS
1
ITEM: BOX BOUNDS pp pp pp
-1.5762434170274597e+01 1.5762434170274597e+01
-1.5762434170274597e+01 1.5762434170274597e+01
-1.5762434170274597e+01 1.5762434170274597e+01
ITEM: ATOMS id type x y z 
2001 2 -1.60352 -0.0290316 0.940402 
ITEM: TIMESTEP
400000
ITEM: NUMBER OF ATOMS
1
ITEM: BOX BOUNDS pp pp pp
-1.5762434170274597e+01 1.5762434170274597e+01
-1.5762434170274597e+01 1.5762434170274597e+01
-1.5762434170274597e+01 1.5762434170274597e+01
ITEM: ATOMS id type x y z 
2001 2 -1.58523 0.0357741 0.778855 
ITEM: TIMESTEP
410000
ITEM: NUMBER OF ATOMS
1
ITEM: BOX BOUNDS pp pp pp
-1.5762434170274597e+01 1.5762434170274597e+01
-1.5762434170274597e+01 1.5762434170274597e+01
-1.5762434170274597e+01 1.5762434170274597e+01
ITEM: ATOMS id type x y z 
2001 2 -1.49863 0.0742584 0.857553 
ITEM: TIMESTEP
420000
ITEM: NUMBER OF ATOMS
1
ITEM: BOX BOUNDS pp pp pp
-1.5762434170274597e+01 1.5762434170274597e+01
-1.5762434170274597e+01 1.5762434170274597e+01
-1.5762434170274597e+01 1.5762434170274597e+01
ITEM: ATOMS id type x y z 
2001 2 -1.63521 -0.0282229 0.803429 
ITEM: TIMESTEP
430000
ITEM: NUMBER OF ATOMS
1
ITEM: BOX BOUNDS pp pp pp
-1.5762434170274597e+01 1.5762434170274597e+01
-1.5762434170274597e+01 1.5762434170274597e+01
-1.5762434170274597e+01 1.5762434170274597e+01
ITEM: ATOMS id type x y z 
2001 2 -1.51257 -0.0190945 0.803656 
ITEM: TIMESTEP
440000
ITEM: NUMBER OF ATOMS
1
ITEM: BOX BOUNDS pp pp pp
-1.5762434170274597e+01 1.5762434170274597e+01
-1.5762434170274597e+01 1.5762434170274597e+01
-1.5762434170274597e+01 1.5762434170274597e+01
ITEM: ATOMS id type x y z 
2001 2 -1.66848 -0.0451215 0.806095 
ITEM: TIMESTEP
450000
ITEM: NUMBER OF ATOMS
1
ITEM: BOX BOUNDS pp pp pp
-1.5762434170274597e+01 1.5762434170274597e+01
-1.5762434170274597e+01 1.5762434170274597e+01
-1.5762434170274597e+01 1.5762434170274597e+01
ITEM: ATOMS id type x y z 
2001 2 -1.59234 -0.0365584 0.472254 
ITEM: TIMESTEP
460000
ITEM: NUMBER OF ATOMS
1
ITEM: BOX BOUNDS pp pp pp
-1.5762434170274597e+01 1.5762434170274597e+01
-1.5762434170274597e+01 1.5762434170274597e+01
-1.5762434170274597e+01 1.5762434170274597e+01
ITEM: ATOMS id type x y z 
2001 2 -1.57663 0.0739933 0.752315 
ITEM: TIMESTEP
470000
ITEM: NUMBER OF ATOMS
1
ITEM: BOX BOUNDS pp pp pp
-1.5762434170274597e+01 1.5762434170274597e+01
-1.5762434170274597e+01 1.5762434170274597e+01
-1.5762434170274597e+01 1.5762434170274597e+01
ITEM: ATOMS id type x y z 
2001 2 -1.55218 0.0354101 0.762984 
ITEM: TIMESTEP
480000
ITEM: NUMBER OF ATOMS
1
ITEM: BOX BOUNDS pp pp pp
-1.5762434170274597e+01 1.5762434170274597e+01
-1.5762434170274597e+01 1.5762434170274597e+01
-1.5762434170274597e+01 1.5762434170274597e+01
ITEM: ATOMS id type x y z 
2001 2 -1.51216 0.0641365 1.05541 
ITEM: TIMESTEP
490000
ITEM: NUMBER OF ATOMS
1
ITEM: BOX BOUNDS pp pp pp
-1.5762434170274597e+01 1.5762434170274597e+01
-1.5762434170274597e+01 1.5762434170274597e+01
-1.5762434170274597e+01 1.5762434170274597e+01
ITEM: ATOMS id type x y z 
2001 2 -1.52693 0.0576534 0.809677 
ITEM: TIMESTEP
500000
ITEM: NUMBER OF ATOMS
1
ITEM: BOX BOUNDS pp pp pp
-1.5762434170274597e+01 1.5762434170274597e+01
-1.5762434170274597e+01 1.5762434170274597e+01
-1.5762434170274597e+01 1.5762434170274597e+01
ITEM: ATOMS id type x y z 
2001 2 -1.53628 -0.103142 0.940991 
ITEM: TIMESTEP
510000
ITEM: NUMBER OF ATOMS
1
ITEM: BOX BOUNDS pp pp pp
-1.5762434170274597e+01 1.5762434170274597e+01
-1.5762434170274597e+01 1.5762434170274597e+01
-1.5762434170274597e+01 1.5762434170274597e+01
ITEM: ATOMS id type x y z 
2001 2 -1.71933 0.0460476 0.908409 
ITEM: TIMESTEP
520000
ITEM: NUMBER OF ATOMS
1
ITEM: BOX BOUNDS pp pp pp
-1.5762434170274597e+01 1.5762434170274597e+01
-1.5762434170274597e+01 1.5762434170274597e+01
-1.5762434170274597e+01 1.5762434170274597e+01
ITEM: ATOMS id type x y z 
2001 2 -1.57061 0.0242962 0.768229 
ITEM: TIMESTEP
530000
ITEM: NUMBER OF ATOMS
1
ITEM: BOX BOUNDS pp pp pp
-1.5762434170274597e+01 1.5762434170274597e+01
-1.5762434170274597e+01 1.5762434170274597e+01
-1.5762434170274597e+01 1.5762434170274597e+01
ITEM: ATOMS id type x y z 
2001 2 -1.53721 -0.0153396 0.625548 
ITEM: TIMESTEP
540000
ITEM: NUMBER OF ATOMS
1
ITEM: BOX BOUNDS pp pp pp
-1.5762434170274597e+01 1.5762434170274597e+01
-1.5762434170274597e+01 1.5762434170274597e+01
-1.5762434170274597e+01 1.5762434170274597e+01
ITEM: ATOMS id type x y z 
2001 2 -1.48134 -0.0482584 0.854457 
ITEM: TIMESTEP
550000
ITEM: NUMBER OF ATOMS
1
ITEM: BOX BOUNDS pp pp pp
-1.5762434170274597e+01 1.5762434170274597e+01
-1.5762434170274597e+01 1.5762434170274597e+01
-1.5762434170274597e+01 1.5762434170274597e+01
ITEM: ATOMS id type x y z 
2001 2 -1.47018 -0.127608 0.704878 
ITEM: TIMESTEP
560000
ITEM: NUMBER OF ATOMS
1
ITEM: BOX BOUNDS pp pp pp
-1.5762434170274597e+01 1.5762434170274597e+01
-1.5762434170274597e+01 1.5762434170274597e+01
-1.5762434170274597e+01 1.5762434170274597e+01
ITEM: ATOMS id type x y z 
2001 2 -1.55802 0.0364153 0.443378 
ITEM: TIMESTEP
570000
ITEM: NUMBER OF ATOMS
1
ITEM: BOX BOUNDS pp pp pp
-1.5762434170274597e+01 1.5762434170274597e+01
-1.5762434170274597e+01 1.5762434170274597e+01
-1.5762434170274597e+01 1.5762434170274597e+01
ITEM: ATOMS id type x y z 
2001 2 -1.52042 -0.0109032 0.947997 
ITEM: TIMESTEP
580000
ITEM: NUMBER OF ATOMS
1
ITEM: BOX BOUNDS pp pp pp
-1.5762434170274597e+01 1.5762434170274597e+01
-1.5762434170274597e+01 1.5762434170274597e+01
-1.5762434170274597e+01 1.5762434170274597e+01
ITEM: ATOMS id type x y z 
2001 2 -1.54331 0.0749162 0.646439 
ITEM: TIMESTEP
590000
ITEM: NUMBER OF ATOMS
1
ITEM: BOX BOUNDS pp pp pp
-1.5762434170274597e+01 1.5762434170274597e+01
-1.5762434170274597e+01 1.5762434170274597e+01
-1.5762434170274597e+01 1.5762434170274597e+01
ITEM: ATOMS id type x y z 
2001 2 -1.57869 -0.0340045 0.807145 
ITEM: TIMESTEP
600000
ITEM: NUMBER OF ATOMS
1
ITEM: BOX BOUNDS pp pp pp
-1.5762434170274597e+01 1.5762434170274597e+01
-1.5762434170274597e+01 1.5762434170274597e+01
-1.5762434170274597e+01 1.5762434170274597e+01
ITEM: ATOMS id type x y z 
2001 2 -1.71911 -0.017825 0.940914 
ITEM: TIMESTEP
610000
ITEM: NUMBER OF ATOMS
1
ITEM: BOX BOUNDS pp pp pp
-1.5762434170274597e+01 1.5762434170274597e+01
-1.5762434170274597e+01 1.5762434170274597e+01
-1.5762434170274597e+01 1.5762434170274597e+01
ITEM: ATOMS id type x y z 
2001 2 -1.65401 0.0192051 0.789803 
ITEM: TIMESTEP
620000
ITEM: NUMBER OF ATOMS
1
ITEM: BOX BOUNDS pp pp pp
-1.5762434170274597e+01 1.5762434170274597e+01
-1.5762434170274597e+01 1.5762434170274597e+01
-1.5762434170274597e+01 1.5762434170274597e+01
ITEM: ATOMS id type x y z 
2001 2 -1.63186 -0.0251061 0.994846 
ITEM: TIMESTEP
630000
ITEM: NUMBER OF ATOMS
1
ITEM: BOX BOUNDS pp pp pp
-1.5762434170274597e+01 1.5762434170274597e+01
-1.5762434170274597e+01 1.5762434170274597e+01
-1.5762434170274597e+01 1.5762434170274597e+01
ITEM: ATOMS id type x y z 
2001 2 -1.50179 0.108484 0.812062 
ITEM: TIMESTEP
640000
ITEM: NUMBER OF ATOMS
1
ITEM: BOX BOUNDS pp pp pp
-1.5762434170274597e+01 1.5762434170274597e+01
-1.5762434170274597e+01 1.5762434170274597e+01
-1.5762434170274597e+01 1.5762434170274597e+01
ITEM: ATOMS id type x y z 
2001 2 -1.51698 -0.0217961 0.841569 
ITEM: TIMESTEP
650000
ITEM: NUMBER OF ATOMS
1
ITEM: BOX BOUNDS pp pp pp
-1.5762434170274597e+01 1.5762434170274597e+01
-1.5762434170274597e+01 1.5762434170274597e+01
-1.5762434170274597e+01 1.5762434170274597e+01
ITEM: ATOMS id type x y z 
2001 2 -1.53459 0.0379465 0.761535 
ITEM: TIMESTEP
660000
ITEM: NUMBER OF ATOMS
1
ITEM: BOX BOUNDS pp pp pp
-1.5762434170274597e+01 1.5762434170274597e+01
-1.5762434170274597e+01 1.5762434170274597e+01
-1.5762434170274597e+01 1.5762434170274597e+01
ITEM: ATOMS id type x y z 
2001 2 -1.62117 0.0350701 0.879542 
ITEM: TIMESTEP
670000
ITEM: NUMBER OF ATOMS
1
ITEM: BOX BOUNDS pp pp pp
-1.5762434170274597e+01 1.5762434170274597e+01
-1.5762434170274597e+01 1.5762434170274597e+01
-1.5762434170274597e+01 1.5762434170274597e+01
ITEM: ATOMS id type x y z 
2001 2 -1.5417 0.119826 0.755871 
ITEM: TIMESTEP
680000
ITEM: NUMBER OF ATOMS
1
ITEM: BOX BOUNDS pp pp pp
-1.5762434170274597e+01 1.5762434170274597e+01
-1.5762434170274597e+01 1.5762434170274597e+01
-1.5762434170274597e+01 1.5762434170274597e+01
ITEM: ATOMS id type x y z 
2001 2 -1.54959 0.0238132 0.835302 
ITEM: TIMESTEP
690000
ITEM: NUMBER OF ATOMS
1
ITEM: BOX BOUNDS pp pp pp
-1.5762434170274597e+01 1.5762434170274597e+01
-1.5762434170274597e+01 1.5762434170274597e+01
-1.5762434170274597e+01 1.5762434170274597e+01
ITEM: ATOMS id type x y z 
2001 2 -1.4264 -0.14908 0.895199 
ITEM: TIMESTEP
700000
ITEM: NUMBER OF ATOMS
1
ITEM: BOX BOUNDS pp pp pp
-1.5762434170274597e+01 1.5762434170274597e+01
-1.5762434170274597e+01 1.5762434170274597e+01
-1.5762434170274597e+01 1.5762434170274597e+01
ITEM: ATOMS id type x y z 
2001 2 -1.53346 -0.121407 0.552706 
ITEM: TIMESTEP
710000
ITEM: NUMBER OF ATOMS
1
ITEM: BOX BOUNDS pp pp pp
-1.5762434170274597e+01 1.5762434170274597e+01
-1.5762434170274597e+01 1.5762434170274597e+01
-1.5762434170274597e+01 1.5762434170274597e+01
ITEM: ATOMS id type x y z 
2001 2 -1.52235 0.0236598 0.907307 
ITEM: TIMESTEP
720000
ITEM: NUMBER OF ATOMS
1
ITEM: BOX BOUNDS pp pp pp
-1.5762434170274597e+01 1.5762434170274597e+01
-1.5762434170274597e+01 1.5762434170274597e+01
-1.5762434170274597e+01 1.5762434170274597e+01
ITEM: ATOMS id type x y z 
2001 2 -1.57923 -0.0403982 0.742017 
ITEM: TIMESTEP
730000
ITEM: NUMBER OF ATOMS
1
ITEM: BOX BOUNDS pp pp pp
-1.5762434170274597e+01 1.5762434170274597e+01
-1.5762434170274597e+01 1.5762434170274597e+01
-1.5762434170274597e+01 1.5762434170274597e+01
ITEM: ATOMS id type x y z 
2001 2 -1.56816 -0.0959843 0.648297 
ITEM: TIMESTEP
740000
ITEM: NUMBER OF ATOMS
1
ITEM: BOX BOUNDS pp pp pp
-1.5762434170274597e+01 1.5762434170274597e+01
-1.5762434170274597e+01 1.5762434170274597e+01
-1.5762434170274597e+01 1.5762434170274597e+01
ITEM: ATOMS id type x y z 
2001 2 -1.51275 0.0638413 0.59236 
ITEM: TIMESTEP
750000
ITEM: NUMBER OF ATOMS
1
ITEM: BOX BOUNDS pp pp pp
-1.5762434170274597e+01 1.5762434170274597e+01
-1.5762434170274597e+01 1.5762434170274597e+01
-1.5762434170274597e+01 1.5762434170274597e+01
ITEM: ATOMS id type x y z 
2001 2 -1.57037 -0.0191218 0.83868 
ITEM: TIMESTEP
760000
ITEM: NUMBER OF ATOMS
1
ITEM: BOX BOUNDS pp pp pp
-1.5762434170274597e+01 1.5762434170274597e+01
-1.5762434170274597e+01 1.5762434170274597e+01
-1.5762434170274597e+01 1.5762434170274597e+01
ITEM: ATOMS id type x y z 
2001 2 -1.59662 0.100704 0.74424 
ITEM: TIMESTEP
770000
ITEM: NUMBER OF ATOMS
1
ITEM: BOX BOUNDS pp pp pp
-1.5762434170274597e+01 1.5762434170274597e+01
-1.5762434170274597e+01 1.5762434170274597e+01
-1.5762434170274597e+01 1.5762434170274597e+01
ITEM: ATOMS id type x y z 
2001 2 -1.5231 0.00213769 0.738975 
ITEM: TIMESTEP
780000
ITEM: NUMBER OF ATOMS
1
ITEM: BOX BOUNDS pp pp pp
-1.5762434170274597e+01 1.5762434170274597e+01
-1.5762434170274597e+01 1.5762434170274597e+01
-1.5762434170274597e+01 1.5762434170274597e+01
ITEM: ATOMS id type x y z 
2001 2 -1.69023 -0.0390213 0.908337 
ITEM: TIMESTEP
790000
ITEM: NUMBER OF ATOMS
1
ITEM: BOX BOUNDS pp pp pp
-1.5762434170274597e+01 1.5762434170274597e+01
-1.5762434170274597e+01 1.5762434170274597e+01
-1.5762434170274597e+01 1.5762434170274597e+01
ITEM: ATOMS id type x y z 
2001 2 -1.64971 -0.00733398 0.764705 
ITEM: TIMESTEP
800000
ITEM: NUMBER OF ATOMS
1
ITEM: BOX BOUNDS pp pp pp
-1.5762434170274597e+01 1.5762434170274597e+01
-1.5762434170274597e+01 1.5762434170274597e+01
-1.5762434170274597e+01 1.5762434170274597e+01
ITEM: ATOMS id type x y z 
2001 2 -1.63792 0.0216567 1.06938 
ITEM: TIMESTEP
810000
ITEM: NUMBER OF ATOMS
1
ITEM: BOX BOUNDS pp pp pp
-1.5762434170274597e+01 1.5762434170274597e+01
-1.5762434170274597e+01 1.5762434170274597e+01
-1.5762434170274597e+01 1.5762434170274597e+01
ITEM: ATOMS id type x y z 
2001 2 -1.50902 0.0721611 0.479942 
ITEM: TIMESTEP
820000
ITEM: NUMBER OF ATOMS
1
ITEM: BOX BOUNDS pp pp pp
-1.5762434170274597e+01 1.5762434170274597e+01
-1.5762434170274597e+01 1.5762434170274597e+01
-1.5762434170274597e+01 1.5762434170274597e+01
ITEM: ATOMS id type x y z 
2001 2 -1.59018 -0.0273676 0.59123 
ITEM: TIMESTEP
830000
ITEM: NUMBER OF ATOMS
1
ITEM: BOX BOUNDS pp pp pp
-1.5762434170274597e+01 1.5762434170274597e+01
-1.5762434170274597e+01 1.5762434170274597e+01
-1.5762434170274597e+01 1.5762434170274597e+01
ITEM: ATOMS id type x y z 
2001 2 -1.60152 -0.0800229 0.915514 
ITEM: TIMESTEP
840000
ITEM: NUMBER OF ATOMS
1
ITEM: BOX BOUNDS pp pp pp
-1.5762434170274597e+01 1.5762434170274597e+01
-1.5762434170274597e+01 1.5762434170274597e+01
-1.5762434170274597e+01 1.5762434170274597e+01
ITEM: ATOMS id type x y z 
2001 2 -1.49444 0.0401565 0.669395 
ITEM: TIMESTEP
850000
ITEM: NUMBER OF ATOMS
1
ITEM: BOX BOUNDS pp pp pp
-1.5762434170274597e+01 1.5762434170274597e+01
-1.5762434170274597e+01 1.5762434170274597e+01
-1.5762434170274597e+01 1.5762434170274597e+01
ITEM: ATOMS id type x y z 
2001 2 -1.49461 0.0157727 0.494561 
ITEM: TIMESTEP
860000
ITEM: NUMBER OF ATOMS
1
ITEM: BOX BOUNDS pp pp pp
-1.5762434170274597e+01 1.5762434170274597e+01
-1.5762434170274597e+01 1.5762434170274597e+01
-1.5762434170274597e+01 1.5762434170274597e+01
ITEM: ATOMS id type x y z 
2001 2 -1.52942 0.0708982 0.834357 
ITEM: TIMESTEP
870000
ITEM: NUMBER OF ATOMS
1
ITEM: BOX BOUNDS pp pp pp
-1.5762434170274597e+01 1.5762434170274597e+01
-1.5762434170274597e+01 1.5762434170274597e+01
-1.5762434170274597e+01 1.5762434170274597e+01
ITEM: ATOMS id type x y z 
2001 2 -1.65096 0.00193309 0.566123 
ITEM: TIMESTEP
880000
ITEM: NUMBER OF ATOMS
1
ITEM: BOX BOUNDS pp pp pp
-1.5762434170274597e+01 1.5762434170274597e+01
-1.5762434170274597e+01 1.5762434170274597e+01
-1.5762434170274597e+01 1.5762434170274597e+01
ITEM: ATOMS id type x y z 
2001 2 -1.49027 -0.0599586 1.05764 
ITEM: TIMESTEP
890000
ITEM: NUMBER OF ATOMS
1
ITEM: BOX BOUNDS pp pp pp
-1.5762434170274597e+01 1.5762434170274597e+01
-1.5762434170274597e+01 1.5762434170274597e+01
-1.5762434170274597e+01 1.5762434170274597e+01
ITEM: ATOMS id type x y z 
2001 2 -1.56056 0.00930461 0.908688 
ITEM: TIMESTEP
900000
ITEM: NUMBER OF ATOMS
1
ITEM: BOX BOUNDS pp pp pp
-1.5762434170274597e+01 1.5762434170274597e+01
-1.5762434170274597e+01 1.5762434170274597e+01
-1.5762434170274597e+01 1.5762434170274597e+01
ITEM: ATOMS id type x y z 
2001 2 -1.59215 -0.0332046 0.74977 
ITEM: TIMESTEP
910000
ITEM: NUMBER OF ATOMS
1
ITEM: BOX BOUNDS pp pp pp
-1.5762434170274597e+01 1.5762434170274597e+01
-1.5762434170274597e+01 1.5762434170274597e+01
-1.5762434170274597e+01 1.5762434170274597e+01
ITEM: ATOMS id type x y z 
2001 2 -1.51491 -0.00308897 0.815016 
ITEM: TIMESTEP
920000
ITEM: NUMBER OF ATOMS
1
ITEM: BOX BOUNDS pp pp pp
-1.5762434170274597e+01 1.5762434170274597e+01
-1.5762434170274597e+01 1.5762434170274597e+01
-1.5762434170274597e+01 1.5762434170274597e+01
ITEM: ATOMS id type x y z 
2001 2 -1.64597 0.0145932 0.725272 
ITEM: TIMESTEP
930000
ITEM: NUMBER OF ATOMS
1
ITEM: BOX BOUNDS pp pp pp
-1.5762434170274597e+01 1.5762434170274597e+01
-1.5762434170274597e+01 1.5762434170274597e+01
-1.5762434170274597e+01 1.5762434170274597e+01
ITEM: ATOMS id type x y z 
2001 2 -0.6703 -0.060602 1.54121 
ITEM: TIMESTEP
940000
ITEM: NUMBER OF ATOMS
1
ITEM: BOX BOUNDS pp pp pp
-1.5762434170274597e+01 1.5762434170274597e+01
-1.5762434170274597e+01 1.5762434170274597e+01
-1.5762434170274597e+01 1.5762434170274597e+01
ITEM: ATOMS id type x y z 
2001 2 -1.02547 -0.0572453 1.66337 
ITEM: TIMESTEP
950000
ITEM: NUMBER OF ATOMS
1
ITEM: BOX BOUNDS pp pp pp
-1.5762434170274597e+01 1.5762434170274597e+01
-1.5762434170274597e+01 1.5762434170274597e+01
-1.5762434170274597e+01 1.5762434170274597e+01
ITEM: ATOMS id type x y z 
2001 2 -0.906402 -0.0104833 1.4306 
ITEM: TIMESTEP
960000
ITEM: NUMBER OF ATOMS
1
ITEM: BOX BOUNDS pp pp pp
-1.5762434170274597e+01 1.5762434170274597e+01
-1.5762434170274597e+01 1.5762434170274597e+01
-1.5762434170274597e+01 1.5762434170274597e+01
ITEM: ATOMS id type x y z 
2001 2 -1.44077 0.142217 2.4186 
ITEM: TIMESTEP
970000
ITEM: NUMBER OF ATOMS
1
ITEM: BOX BOUNDS pp pp pp
-1.5762434170274597e+01 1.5762434170274597e+01
-1.5762434170274597e+01 1.5762434170274597e+01
-1.5762434170274597e+01 1.5762434170274597e+01
ITEM: ATOMS id type x y z 
2001 2 -1.52831 0.0548906 2.3737 
ITEM: TIMESTEP
980000
ITEM: NUMBER OF ATOMS
1
ITEM: BOX BOUNDS pp pp pp
-1.5762434170274597e+01 1.5762434170274597e+01
-1.5762434170274597e+01 1.5762434170274597e+01
-1.5762434170274597e+01 1.5762434170274597e+01
ITEM: ATOMS id type x y z 
2001 2 -1.55401 0.0290646 2.4296 
ITEM: TIMESTEP
990000
ITEM: NUMBER OF ATOMS
1
ITEM: BOX BOUNDS pp pp pp
-1.5762434170274597e+01 1.5762434170274597e+01
-1.5762434170274597e+01 1.5762434170274597e+01
-1.5762434170274597e+01 1.5762434170274597e+01
ITEM: ATOMS id type x y z 
2001 2 -1.5621 -0.0337846 2.43525 
ITEM: TIMESTEP
1000000
ITEM: NUMBER OF ATOMS
1
ITEM: BOX BOUNDS pp pp pp
-1.5762434170274597e+01 1.5762434170274597e+01
-1.5762434170274597e+01 1.5762434170274597e+01
-1.5762434170274597e+01 1.5762434170274597e+01
ITEM: ATOMS id type x y z 
2001 2 -1.59802 -0.497934 3.1163 
ITEM: TIMESTEP
1010000
ITEM: NUMBER OF ATOMS
1
ITEM: BOX BOUNDS pp pp pp
-1.5762434170274597e+01 1.5762434170274597e+01
-1.5762434170274597e+01 1.5762434170274597e+01
-1.5762434170274597e+01 1.5762434170274597e+01
ITEM: ATOMS id type x y z 
2001 2 -1.59795 -0.88047 3.19081 
ITEM: TIMESTEP
1020000
ITEM: NUMBER OF ATOMS
1
ITEM: BOX BOUNDS pp pp pp
-1.5762434170274597e+01 1.5762434170274597e+01
-1.5762434170274597e+01 1.5762434170274597e+01
-1.5762434170274597e+01 1.5762434170274597e+01
ITEM: ATOMS id type x y z 
2001 2 -1.46402 -0.639337 3.19847 
ITEM: TIMESTEP
1030000
ITEM: NUMBER OF ATOMS
1
ITEM: BOX BOUNDS pp pp pp
-1.5762434170274597e+01 1.5762434170274597e+01
-1.5762434170274597e+01 1.5762434170274597e+01
-1.5762434170274597e+01 1.5762434170274597e+01
ITEM: ATOMS id type x y z 
2001 2 -1.59084 -0.944009 3.05479 
ITEM: TIMESTEP
1040000
ITEM: NUMBER OF ATOMS
1
ITEM: BOX BOUNDS pp pp pp
-1.5762434170274597e+01 1.5762434170274597e+01
-1.5762434170274597e+01 1.5762434170274597e+01
-1.5762434170274597e+01 1.5762434170274597e+01
ITEM: ATOMS id type x y z 
2001 2 -1.53666 0.0777367 3.95776 
ITEM: TIMESTEP
1050000
ITEM: NUMBER OF ATOMS
1
ITEM: BOX BOUNDS pp pp pp
-1.5762434170274597e+01 1.5762434170274597e+01
-1.5762434170274597e+01 1.5762434170274597e+01
-1.5762434170274597e+01 1.5762434170274597e+01
ITEM: ATOMS id type x y z 
2001 2 -1.54251 0.168825 3.74476 
ITEM: TIMESTEP
1060000
ITEM: NUMBER OF ATOMS
1
ITEM: BOX BOUNDS pp pp pp
-1.5762434170274597e+01 1.5762434170274597e+01
-1.5762434170274597e+01 1.5762434170274597e+01
-1.5762434170274597e+01 1.5762434170274597e+01
ITEM: ATOMS id type x y z 
2001 2 -1.66462 -0.0114592 4.26998 
ITEM: TIMESTEP
1070000
ITEM: NUMBER OF ATOMS
1
ITEM: BOX BOUNDS pp pp pp
-1.5762434170274597e+01 1.5762434170274597e+01
-1.5762434170274597e+01 1.5762434170274597e+01
-1.5762434170274597e+01 1.5762434170274597e+01
ITEM: ATOMS id type x y z 
2001 2 -1.52952 -0.0256308 3.95078 
ITEM: TIMESTEP
1080000
ITEM: NUMBER OF ATOMS
1
ITEM: BOX BOUNDS pp pp pp
-1.5762434170274597e+01 1.5762434170274597e+01
-1.5762434170274597e+01 1.5762434170274597e+01
-1.5762434170274597e+01 1.5762434170274597e+01
ITEM: ATOMS id type x y z 
2001 2 -1.60718 -0.013852 4.07012 
ITEM: TIMESTEP
1090000
ITEM: NUMBER OF ATOMS
1
ITEM: BOX BOUNDS pp pp pp
-1.5762434170274597e+01 1.5762434170274597e+01
-1.5762434170274597e+01 1.5762434170274597e+01